 # Hcp Be with box vectors H1=[2-1-10], H2=[-12-10], H3=[0001].
  
        3888  atoms
           1  atom types
 
      0.000000000000      20.700000000000  xlo xhi
      0.000000000000      23.902301144451  ylo yhi
      0.000000000000      65.080800000000  zlo zhi
 
Masses
 
            1   9.01218200              # Be
 
Atoms # atomic
 
         1    1        0.000000000000       1.327905619136       1.807800000000
         2    1        1.150000000000       3.319764047840       1.807800000000
         3    1        0.000000000000       0.000000000000       0.000000000000
         4    1        1.150000000000       1.991858428704       0.000000000000
         5    1        2.300000000000       1.327905619136       1.807800000000
         6    1        3.450000000000       3.319764047840       1.807800000000
         7    1        2.300000000000       0.000000000000       0.000000000000
         8    1        3.450000000000       1.991858428704       0.000000000000
         9    1        4.600000000000       1.327905619136       1.807800000000
        10    1        5.750000000000       3.319764047840       1.807800000000
        11    1        4.600000000000       0.000000000000       0.000000000000
        12    1        5.750000000000       1.991858428704       0.000000000000
        13    1        6.900000000000       1.327905619136       1.807800000000
        14    1        8.050000000000       3.319764047840       1.807800000000
        15    1        6.900000000000       0.000000000000       0.000000000000
        16    1        8.050000000000       1.991858428704       0.000000000000
        17    1        9.200000000000       1.327905619136       1.807800000000
        18    1       10.350000000000       3.319764047840       1.807800000000
        19    1        9.200000000000       0.000000000000       0.000000000000
        20    1       10.350000000000       1.991858428704       0.000000000000
        21    1       11.500000000000       1.327905619136       1.807800000000
        22    1       12.650000000000       3.319764047840       1.807800000000
        23    1       11.500000000000       0.000000000000       0.000000000000
        24    1       12.650000000000       1.991858428704       0.000000000000
        25    1       13.800000000000       1.327905619136       1.807800000000
        26    1       14.950000000000       3.319764047840       1.807800000000
        27    1       13.800000000000       0.000000000000       0.000000000000
        28    1       14.950000000000       1.991858428704       0.000000000000
        29    1       16.100000000000       1.327905619136       1.807800000000
        30    1       17.250000000000       3.319764047840       1.807800000000
        31    1       16.100000000000       0.000000000000       0.000000000000
        32    1       17.250000000000       1.991858428704       0.000000000000
        33    1       18.400000000000       1.327905619136       1.807800000000
        34    1       19.550000000000       3.319764047840       1.807800000000
        35    1       18.400000000000       0.000000000000       0.000000000000
        36    1       19.550000000000       1.991858428704       0.000000000000
        37    1        0.000000000000       5.311622476545       1.807800000000
        38    1        1.150000000000       7.303480905249       1.807800000000
        39    1        0.000000000000       3.983716857408       0.000000000000
        40    1        1.150000000000       5.975575286113       0.000000000000
        41    1        2.300000000000       5.311622476545       1.807800000000
        42    1        3.450000000000       7.303480905249       1.807800000000
        43    1        2.300000000000       3.983716857408       0.000000000000
        44    1        3.450000000000       5.975575286113       0.000000000000
        45    1        4.600000000000       5.311622476545       1.807800000000
        46    1        5.750000000000       7.303480905249       1.807800000000
        47    1        4.600000000000       3.983716857408       0.000000000000
        48    1        5.750000000000       5.975575286113       0.000000000000
        49    1        6.900000000000       5.311622476545       1.807800000000
        50    1        8.050000000000       7.303480905249       1.807800000000
        51    1        6.900000000000       3.983716857408       0.000000000000
        52    1        8.050000000000       5.975575286113       0.000000000000
        53    1        9.200000000000       5.311622476545       1.807800000000
        54    1       10.350000000000       7.303480905249       1.807800000000
        55    1        9.200000000000       3.983716857408       0.000000000000
        56    1       10.350000000000       5.975575286113       0.000000000000
        57    1       11.500000000000       5.311622476545       1.807800000000
        58    1       12.650000000000       7.303480905249       1.807800000000
        59    1       11.500000000000       3.983716857408       0.000000000000
        60    1       12.650000000000       5.975575286113       0.000000000000
        61    1       13.800000000000       5.311622476545       1.807800000000
        62    1       14.950000000000       7.303480905249       1.807800000000
        63    1       13.800000000000       3.983716857408       0.000000000000
        64    1       14.950000000000       5.975575286113       0.000000000000
        65    1       16.100000000000       5.311622476545       1.807800000000
        66    1       17.250000000000       7.303480905249       1.807800000000
        67    1       16.100000000000       3.983716857408       0.000000000000
        68    1       17.250000000000       5.975575286113       0.000000000000
        69    1       18.400000000000       5.311622476545       1.807800000000
        70    1       19.550000000000       7.303480905249       1.807800000000
        71    1       18.400000000000       3.983716857408       0.000000000000
        72    1       19.550000000000       5.975575286113       0.000000000000
        73    1        0.000000000000       9.295339333953       1.807800000000
        74    1        1.150000000000      11.287197762657       1.807800000000
        75    1        0.000000000000       7.967433714817       0.000000000000
        76    1        1.150000000000       9.959292143521       0.000000000000
        77    1        2.300000000000       9.295339333953       1.807800000000
        78    1        3.450000000000      11.287197762657       1.807800000000
        79    1        2.300000000000       7.967433714817       0.000000000000
        80    1        3.450000000000       9.959292143521       0.000000000000
        81    1        4.600000000000       9.295339333953       1.807800000000
        82    1        5.750000000000      11.287197762657       1.807800000000
        83    1        4.600000000000       7.967433714817       0.000000000000
        84    1        5.750000000000       9.959292143521       0.000000000000
        85    1        6.900000000000       9.295339333953       1.807800000000
        86    1        8.050000000000      11.287197762657       1.807800000000
        87    1        6.900000000000       7.967433714817       0.000000000000
        88    1        8.050000000000       9.959292143521       0.000000000000
        89    1        9.200000000000       9.295339333953       1.807800000000
        90    1       10.350000000000      11.287197762657       1.807800000000
        91    1        9.200000000000       7.967433714817       0.000000000000
        92    1       10.350000000000       9.959292143521       0.000000000000
        93    1       11.500000000000       9.295339333953       1.807800000000
        94    1       12.650000000000      11.287197762657       1.807800000000
        95    1       11.500000000000       7.967433714817       0.000000000000
        96    1       12.650000000000       9.959292143521       0.000000000000
        97    1       13.800000000000       9.295339333953       1.807800000000
        98    1       14.950000000000      11.287197762657       1.807800000000
        99    1       13.800000000000       7.967433714817       0.000000000000
       100    1       14.950000000000       9.959292143521       0.000000000000
       101    1       16.100000000000       9.295339333953       1.807800000000
       102    1       17.250000000000      11.287197762657       1.807800000000
       103    1       16.100000000000       7.967433714817       0.000000000000
       104    1       17.250000000000       9.959292143521       0.000000000000
       105    1       18.400000000000       9.295339333953       1.807800000000
       106    1       19.550000000000      11.287197762657       1.807800000000
       107    1       18.400000000000       7.967433714817       0.000000000000
       108    1       19.550000000000       9.959292143521       0.000000000000
       109    1        0.000000000000      13.279056191361       1.807800000000
       110    1        1.150000000000      15.270914620066       1.807800000000
       111    1        0.000000000000      11.951150572225       0.000000000000
       112    1        1.150000000000      13.943009000929       0.000000000000
       113    1        2.300000000000      13.279056191361       1.807800000000
       114    1        3.450000000000      15.270914620066       1.807800000000
       115    1        2.300000000000      11.951150572225       0.000000000000
       116    1        3.450000000000      13.943009000929       0.000000000000
       117    1        4.600000000000      13.279056191361       1.807800000000
       118    1        5.750000000000      15.270914620066       1.807800000000
       119    1        4.600000000000      11.951150572225       0.000000000000
       120    1        5.750000000000      13.943009000929       0.000000000000
       121    1        6.900000000000      13.279056191361       1.807800000000
       122    1        8.050000000000      15.270914620066       1.807800000000
       123    1        6.900000000000      11.951150572225       0.000000000000
       124    1        8.050000000000      13.943009000929       0.000000000000
       125    1        9.200000000000      13.279056191361       1.807800000000
       126    1       10.350000000000      15.270914620066       1.807800000000
       127    1        9.200000000000      11.951150572225       0.000000000000
       128    1       10.350000000000      13.943009000929       0.000000000000
       129    1       11.500000000000      13.279056191361       1.807800000000
       130    1       12.650000000000      15.270914620066       1.807800000000
       131    1       11.500000000000      11.951150572225       0.000000000000
       132    1       12.650000000000      13.943009000929       0.000000000000
       133    1       13.800000000000      13.279056191361       1.807800000000
       134    1       14.950000000000      15.270914620066       1.807800000000
       135    1       13.800000000000      11.951150572225       0.000000000000
       136    1       14.950000000000      13.943009000929       0.000000000000
       137    1       16.100000000000      13.279056191361       1.807800000000
       138    1       17.250000000000      15.270914620066       1.807800000000
       139    1       16.100000000000      11.951150572225       0.000000000000
       140    1       17.250000000000      13.943009000929       0.000000000000
       141    1       18.400000000000      13.279056191361       1.807800000000
       142    1       19.550000000000      15.270914620066       1.807800000000
       143    1       18.400000000000      11.951150572225       0.000000000000
       144    1       19.550000000000      13.943009000929       0.000000000000
       145    1        0.000000000000      17.262773048770       1.807800000000
       146    1        1.150000000000      19.254631477474       1.807800000000
       147    1        0.000000000000      15.934867429634       0.000000000000
       148    1        1.150000000000      17.926725858338       0.000000000000
       149    1        2.300000000000      17.262773048770       1.807800000000
       150    1        3.450000000000      19.254631477474       1.807800000000
       151    1        2.300000000000      15.934867429634       0.000000000000
       152    1        3.450000000000      17.926725858338       0.000000000000
       153    1        4.600000000000      17.262773048770       1.807800000000
       154    1        5.750000000000      19.254631477474       1.807800000000
       155    1        4.600000000000      15.934867429634       0.000000000000
       156    1        5.750000000000      17.926725858338       0.000000000000
       157    1        6.900000000000      17.262773048770       1.807800000000
       158    1        8.050000000000      19.254631477474       1.807800000000
       159    1        6.900000000000      15.934867429634       0.000000000000
       160    1        8.050000000000      17.926725858338       0.000000000000
       161    1        9.200000000000      17.262773048770       1.807800000000
       162    1       10.350000000000      19.254631477474       1.807800000000
       163    1        9.200000000000      15.934867429634       0.000000000000
       164    1       10.350000000000      17.926725858338       0.000000000000
       165    1       11.500000000000      17.262773048770       1.807800000000
       166    1       12.650000000000      19.254631477474       1.807800000000
       167    1       11.500000000000      15.934867429634       0.000000000000
       168    1       12.650000000000      17.926725858338       0.000000000000
       169    1       13.800000000000      17.262773048770       1.807800000000
       170    1       14.950000000000      19.254631477474       1.807800000000
       171    1       13.800000000000      15.934867429634       0.000000000000
       172    1       14.950000000000      17.926725858338       0.000000000000
       173    1       16.100000000000      17.262773048770       1.807800000000
       174    1       17.250000000000      19.254631477474       1.807800000000
       175    1       16.100000000000      15.934867429634       0.000000000000
       176    1       17.250000000000      17.926725858338       0.000000000000
       177    1       18.400000000000      17.262773048770       1.807800000000
       178    1       19.550000000000      19.254631477474       1.807800000000
       179    1       18.400000000000      15.934867429634       0.000000000000
       180    1       19.550000000000      17.926725858338       0.000000000000
       181    1        0.000000000000      21.246489906178       1.807800000000
       182    1        1.150000000000      23.238348334882       1.807800000000
       183    1        0.000000000000      19.918584287042       0.000000000000
       184    1        1.150000000000      21.910442715746       0.000000000000
       185    1        2.300000000000      21.246489906178       1.807800000000
       186    1        3.450000000000      23.238348334882       1.807800000000
       187    1        2.300000000000      19.918584287042       0.000000000000
       188    1        3.450000000000      21.910442715746       0.000000000000
       189    1        4.600000000000      21.246489906178       1.807800000000
       190    1        5.750000000000      23.238348334882       1.807800000000
       191    1        4.600000000000      19.918584287042       0.000000000000
       192    1        5.750000000000      21.910442715746       0.000000000000
       193    1        6.900000000000      21.246489906178       1.807800000000
       194    1        8.050000000000      23.238348334882       1.807800000000
       195    1        6.900000000000      19.918584287042       0.000000000000
       196    1        8.050000000000      21.910442715746       0.000000000000
       197    1        9.200000000000      21.246489906178       1.807800000000
       198    1       10.350000000000      23.238348334882       1.807800000000
       199    1        9.200000000000      19.918584287042       0.000000000000
       200    1       10.350000000000      21.910442715746       0.000000000000
       201    1       11.500000000000      21.246489906178       1.807800000000
       202    1       12.650000000000      23.238348334882       1.807800000000
       203    1       11.500000000000      19.918584287042       0.000000000000
       204    1       12.650000000000      21.910442715746       0.000000000000
       205    1       13.800000000000      21.246489906178       1.807800000000
       206    1       14.950000000000      23.238348334882       1.807800000000
       207    1       13.800000000000      19.918584287042       0.000000000000
       208    1       14.950000000000      21.910442715746       0.000000000000
       209    1       16.100000000000      21.246489906178       1.807800000000
       210    1       17.250000000000      23.238348334882       1.807800000000
       211    1       16.100000000000      19.918584287042       0.000000000000
       212    1       17.250000000000      21.910442715746       0.000000000000
       213    1       18.400000000000      21.246489906178       1.807800000000
       214    1       19.550000000000      23.238348334882       1.807800000000
       215    1       18.400000000000      19.918584287042       0.000000000000
       216    1       19.550000000000      21.910442715746       0.000000000000
       217    1        0.000000000000       1.327905619136       5.423400000000
       218    1        1.150000000000       3.319764047840       5.423400000000
       219    1        0.000000000000       0.000000000000       3.615600000000
       220    1        1.150000000000       1.991858428704       3.615600000000
       221    1        2.300000000000       1.327905619136       5.423400000000
       222    1        3.450000000000       3.319764047840       5.423400000000
       223    1        2.300000000000       0.000000000000       3.615600000000
       224    1        3.450000000000       1.991858428704       3.615600000000
       225    1        4.600000000000       1.327905619136       5.423400000000
       226    1        5.750000000000       3.319764047840       5.423400000000
       227    1        4.600000000000       0.000000000000       3.615600000000
       228    1        5.750000000000       1.991858428704       3.615600000000
       229    1        6.900000000000       1.327905619136       5.423400000000
       230    1        8.050000000000       3.319764047840       5.423400000000
       231    1        6.900000000000       0.000000000000       3.615600000000
       232    1        8.050000000000       1.991858428704       3.615600000000
       233    1        9.200000000000       1.327905619136       5.423400000000
       234    1       10.350000000000       3.319764047840       5.423400000000
       235    1        9.200000000000       0.000000000000       3.615600000000
       236    1       10.350000000000       1.991858428704       3.615600000000
       237    1       11.500000000000       1.327905619136       5.423400000000
       238    1       12.650000000000       3.319764047840       5.423400000000
       239    1       11.500000000000       0.000000000000       3.615600000000
       240    1       12.650000000000       1.991858428704       3.615600000000
       241    1       13.800000000000       1.327905619136       5.423400000000
       242    1       14.950000000000       3.319764047840       5.423400000000
       243    1       13.800000000000       0.000000000000       3.615600000000
       244    1       14.950000000000       1.991858428704       3.615600000000
       245    1       16.100000000000       1.327905619136       5.423400000000
       246    1       17.250000000000       3.319764047840       5.423400000000
       247    1       16.100000000000       0.000000000000       3.615600000000
       248    1       17.250000000000       1.991858428704       3.615600000000
       249    1       18.400000000000       1.327905619136       5.423400000000
       250    1       19.550000000000       3.319764047840       5.423400000000
       251    1       18.400000000000       0.000000000000       3.615600000000
       252    1       19.550000000000       1.991858428704       3.615600000000
       253    1        0.000000000000       5.311622476545       5.423400000000
       254    1        1.150000000000       7.303480905249       5.423400000000
       255    1        0.000000000000       3.983716857408       3.615600000000
       256    1        1.150000000000       5.975575286113       3.615600000000
       257    1        2.300000000000       5.311622476545       5.423400000000
       258    1        3.450000000000       7.303480905249       5.423400000000
       259    1        2.300000000000       3.983716857408       3.615600000000
       260    1        3.450000000000       5.975575286113       3.615600000000
       261    1        4.600000000000       5.311622476545       5.423400000000
       262    1        5.750000000000       7.303480905249       5.423400000000
       263    1        4.600000000000       3.983716857408       3.615600000000
       264    1        5.750000000000       5.975575286113       3.615600000000
       265    1        6.900000000000       5.311622476545       5.423400000000
       266    1        8.050000000000       7.303480905249       5.423400000000
       267    1        6.900000000000       3.983716857408       3.615600000000
       268    1        8.050000000000       5.975575286113       3.615600000000
       269    1        9.200000000000       5.311622476545       5.423400000000
       270    1       10.350000000000       7.303480905249       5.423400000000
       271    1        9.200000000000       3.983716857408       3.615600000000
       272    1       10.350000000000       5.975575286113       3.615600000000
       273    1       11.500000000000       5.311622476545       5.423400000000
       274    1       12.650000000000       7.303480905249       5.423400000000
       275    1       11.500000000000       3.983716857408       3.615600000000
       276    1       12.650000000000       5.975575286113       3.615600000000
       277    1       13.800000000000       5.311622476545       5.423400000000
       278    1       14.950000000000       7.303480905249       5.423400000000
       279    1       13.800000000000       3.983716857408       3.615600000000
       280    1       14.950000000000       5.975575286113       3.615600000000
       281    1       16.100000000000       5.311622476545       5.423400000000
       282    1       17.250000000000       7.303480905249       5.423400000000
       283    1       16.100000000000       3.983716857408       3.615600000000
       284    1       17.250000000000       5.975575286113       3.615600000000
       285    1       18.400000000000       5.311622476545       5.423400000000
       286    1       19.550000000000       7.303480905249       5.423400000000
       287    1       18.400000000000       3.983716857408       3.615600000000
       288    1       19.550000000000       5.975575286113       3.615600000000
       289    1        0.000000000000       9.295339333953       5.423400000000
       290    1        1.150000000000      11.287197762657       5.423400000000
       291    1        0.000000000000       7.967433714817       3.615600000000
       292    1        1.150000000000       9.959292143521       3.615600000000
       293    1        2.300000000000       9.295339333953       5.423400000000
       294    1        3.450000000000      11.287197762657       5.423400000000
       295    1        2.300000000000       7.967433714817       3.615600000000
       296    1        3.450000000000       9.959292143521       3.615600000000
       297    1        4.600000000000       9.295339333953       5.423400000000
       298    1        5.750000000000      11.287197762657       5.423400000000
       299    1        4.600000000000       7.967433714817       3.615600000000
       300    1        5.750000000000       9.959292143521       3.615600000000
       301    1        6.900000000000       9.295339333953       5.423400000000
       302    1        8.050000000000      11.287197762657       5.423400000000
       303    1        6.900000000000       7.967433714817       3.615600000000
       304    1        8.050000000000       9.959292143521       3.615600000000
       305    1        9.200000000000       9.295339333953       5.423400000000
       306    1       10.350000000000      11.287197762657       5.423400000000
       307    1        9.200000000000       7.967433714817       3.615600000000
       308    1       10.350000000000       9.959292143521       3.615600000000
       309    1       11.500000000000       9.295339333953       5.423400000000
       310    1       12.650000000000      11.287197762657       5.423400000000
       311    1       11.500000000000       7.967433714817       3.615600000000
       312    1       12.650000000000       9.959292143521       3.615600000000
       313    1       13.800000000000       9.295339333953       5.423400000000
       314    1       14.950000000000      11.287197762657       5.423400000000
       315    1       13.800000000000       7.967433714817       3.615600000000
       316    1       14.950000000000       9.959292143521       3.615600000000
       317    1       16.100000000000       9.295339333953       5.423400000000
       318    1       17.250000000000      11.287197762657       5.423400000000
       319    1       16.100000000000       7.967433714817       3.615600000000
       320    1       17.250000000000       9.959292143521       3.615600000000
       321    1       18.400000000000       9.295339333953       5.423400000000
       322    1       19.550000000000      11.287197762657       5.423400000000
       323    1       18.400000000000       7.967433714817       3.615600000000
       324    1       19.550000000000       9.959292143521       3.615600000000
       325    1        0.000000000000      13.279056191361       5.423400000000
       326    1        1.150000000000      15.270914620066       5.423400000000
       327    1        0.000000000000      11.951150572225       3.615600000000
       328    1        1.150000000000      13.943009000929       3.615600000000
       329    1        2.300000000000      13.279056191361       5.423400000000
       330    1        3.450000000000      15.270914620066       5.423400000000
       331    1        2.300000000000      11.951150572225       3.615600000000
       332    1        3.450000000000      13.943009000929       3.615600000000
       333    1        4.600000000000      13.279056191361       5.423400000000
       334    1        5.750000000000      15.270914620066       5.423400000000
       335    1        4.600000000000      11.951150572225       3.615600000000
       336    1        5.750000000000      13.943009000929       3.615600000000
       337    1        6.900000000000      13.279056191361       5.423400000000
       338    1        8.050000000000      15.270914620066       5.423400000000
       339    1        6.900000000000      11.951150572225       3.615600000000
       340    1        8.050000000000      13.943009000929       3.615600000000
       341    1        9.200000000000      13.279056191361       5.423400000000
       342    1       10.350000000000      15.270914620066       5.423400000000
       343    1        9.200000000000      11.951150572225       3.615600000000
       344    1       10.350000000000      13.943009000929       3.615600000000
       345    1       11.500000000000      13.279056191361       5.423400000000
       346    1       12.650000000000      15.270914620066       5.423400000000
       347    1       11.500000000000      11.951150572225       3.615600000000
       348    1       12.650000000000      13.943009000929       3.615600000000
       349    1       13.800000000000      13.279056191361       5.423400000000
       350    1       14.950000000000      15.270914620066       5.423400000000
       351    1       13.800000000000      11.951150572225       3.615600000000
       352    1       14.950000000000      13.943009000929       3.615600000000
       353    1       16.100000000000      13.279056191361       5.423400000000
       354    1       17.250000000000      15.270914620066       5.423400000000
       355    1       16.100000000000      11.951150572225       3.615600000000
       356    1       17.250000000000      13.943009000929       3.615600000000
       357    1       18.400000000000      13.279056191361       5.423400000000
       358    1       19.550000000000      15.270914620066       5.423400000000
       359    1       18.400000000000      11.951150572225       3.615600000000
       360    1       19.550000000000      13.943009000929       3.615600000000
       361    1        0.000000000000      17.262773048770       5.423400000000
       362    1        1.150000000000      19.254631477474       5.423400000000
       363    1        0.000000000000      15.934867429634       3.615600000000
       364    1        1.150000000000      17.926725858338       3.615600000000
       365    1        2.300000000000      17.262773048770       5.423400000000