# LAMMPS data file written by OVITO Basic 3.10.6

19840 atoms
2 atom types

-10.9735118357 31.516097467 xlo xhi
-12.6711200246 36.3916547128 ylo yhi
-68.8052996974 48.8377931196 zlo zhi

Masses

1 9.012182  # Be
2 2.014  # D

Atoms  # atomic

131 1 12.7047042155 12.5207825362 -67.8277113483 0 0 0
132 1 11.5100656799 14.4738745101 -67.9306233453 0 0 0
135 1 15.1367190059 12.5269056541 -67.7942684738 0 0 0
136 1 13.8989586916 14.616392077 -67.8106405198 0 0 0
139 1 17.4870125582 12.5260119723 -67.7830751709 0 0 0
140 1 16.2716351577 14.5194233657 -67.9455724397 0 0 0
143 1 19.6249186677 12.4717851234 -67.9563902486 0 0 0
144 1 18.4365125585 14.6507998834 -67.8902356066 0 0 0
141 1 20.8534008207 13.3825163941 -66.2103929654 0 0 0
112 1 -0.4162671453 14.4986807795 -67.8396648911 0 0 0
167 1 12.5276748344 16.5402454799 -67.9202030302 0 0 0
171 1 15.115369795 16.7460423287 -67.7157603833 0 0 0
175 1 17.5024869876 16.7571719243 -67.9693950428 0 0 0
138 1 17.3014466894 15.2655306218 -66.3584105071 0 0 0
179 1 19.8100856577 16.6072754523 -67.9027672547 0 0 0
142 1 19.8572228006 15.1885311037 -66.2185540138 0 0 0
168 1 11.355322066 18.6658097048 -68.0031704752 0 0 0
203 1 12.6515613435 20.7588283027 -67.9833149171 0 0 0
172 1 13.7280181363 18.6247783305 -68.0375862201 0 0 0
207 1 14.9791353962 20.5745830782 -67.8667336943 0 0 0
176 1 16.112506388 18.4792286523 -67.9953545374 0 0 0
211 1 17.3531256503 20.7051667247 -67.9246499905 0 0 0
180 1 18.6143132804 18.7382703668 -68.0380279297 0 0 0
215 1 19.6536824892 20.6976016954 -67.7666398152 0 0 0
148 1 -0.356730735 18.8538006629 -67.8325106904 0 0 0
204 1 11.4828861793 22.7892224798 -67.8656026603 0 0 0
208 1 13.8451386171 22.7172657762 -68.05714161 0 0 0
201 1 13.7447856176 21.3631406259 -66.219155538 0 0 0
206 1 15.0091067821 23.5411070389 -66.2528437536 0 0 0
212 1 16.1099983219 22.8271343362 -67.7581966475 0 0 0
216 1 18.5117830053 22.7819798296 -67.6706597888 0 0 0
125 1 11.6244344114 13.1122588024 -66.004744556 0 0 0
347 1 12.7227925269 12.5154602628 -64.2388723259 0 0 0
348 1 11.5029163068 14.4803186484 -64.199025669 0 0 0
343 1 10.2806313594 12.4531550758 -64.2998589827 0 0 0
129 1 14.0109827092 13.2447779817 -65.9877192099 0 0 0
351 1 15.0628498144 12.5755998524 -64.2771131092 0 0 0
352 1 13.9168813635 14.6037959851 -64.209286779 0 0 0
133 1 16.2530129134 13.2847567801 -66.0989581006 0 0 0
355 1 17.3661615672 12.5807498633 -64.3332047788 0 0 0
356 1 16.21944623 14.6173193313 -64.2765483511 0 0 0
137 1 18.4220133286 13.2557716002 -66.17873129 0 0 0
359 1 19.684806392 12.5704113437 -64.3750749684 0 0 0
360 1 18.5092338645 14.5918855597 -64.3965666131 0 0 0
1501 1 18.5699085336 22.6888348226 -46.3311478045 0 0 0
126 1 10.4065654235 14.9269698191 -66.0330016946 0 0 0
161 1 11.4588449916 17.2298882236 -65.9762341181 0 0 0
130 1 12.6022426823 15.2314207064 -65.8318380547 0 0 0
383 1 12.6293676516 16.6375493827 -64.2439349173 0 0 0
379 1 10.3273767722 16.5740188568 -64.2751984637 0 0 0
134 1 15.1178173939 15.2704947315 -65.9227970488 0 0 0
165 1 13.7754994673 17.4293724776 -66.1841174812 0 0 0
387 1 15.0460110858 16.6954399984 -64.3090324167 0 0 0
169 1 16.2999505312 17.4565649523 -66.1380393439 0 0 0
391 1 17.3942432592 16.6564806191 -64.3694525094 0 0 0
177 1 20.8590447816 17.4221067924 -66.1387949825 0 0 0
395 1 19.7404533997 16.6459758936 -64.3685764428 0 0 0
173 1 18.645341899 17.3038222493 -66.1743407829 0 0 0
166 1 12.5575198377 19.3805531732 -66.1131106418 0 0 0
384 1 11.4342756897 18.6729722093 -64.3112290884 0 0 0
419 1 12.5794865112 20.717569525 -64.3462483394 0 0 0
1497 1 16.1928479312 22.7017707904 -46.332108329 0 0 0
170 1 15.0923714187 19.4207569536 -66.1590328414 0 0 0
388 1 13.7963469805 18.6945698917 -64.335847055 0 0 0
423 1 14.9579478253 20.7347886442 -64.3227781115 0 0 0
174 1 17.3227881614 19.3306085325 -66.1638535079 0 0 0
392 1 16.2310802047 18.7086894331 -64.3238795436 0 0 0
427 1 17.317907518 20.7173059902 -64.3091490769 0 0 0
178 1 19.6369397969 19.3835842692 -66.0191897997 0 0 0
396 1 18.5399148816 18.6773932366 -64.3121149548 0 0 0
431 1 19.6909504283 20.7133859317 -64.2671175743 0 0 0
364 1 -0.3929281203 18.6878137626 -64.2825301644 0 0 0
202 1 12.6421752271 23.3822696549 -66.0782206872 0 0 0
197 1 11.2790434442 21.4586758572 -66.107953531 0 0 0
420 1 11.3794417972 22.7154486984 -64.322230341 0 0 0
424 1 13.7714572718 22.7373040548 -64.3559571526 0 0 0
205 1 16.0505873434 21.4798422997 -66.0363763348 0 0 0
210 1 17.2305504696 23.4727499481 -66.0385321268 0 0 0
428 1 16.1200053421 22.80076167 -64.2917865926 0 0 0
209 1 18.6098117123 21.3456353334 -66.016955878 0 0 0
214 1 19.6274442848 23.3442990461 -65.92511695 0 0 0
432 1 18.5327682077 22.7368849501 -64.2484348881 0 0 0
341 1 11.5168434146 13.1795877561 -62.4778629673 0 0 0
345 1 13.8795389593 13.2230104587 -62.469658541 0 0 0
349 1 16.2162949488 13.2263579207 -62.5087771654 0 0 0
353 1 18.5323195924 13.2191062016 -62.5423537645 0 0 0
346 1 12.682022443 15.2606767838 -62.4788328646 0 0 0
342 1 10.313662062 15.1961189754 -62.4905305938 0 0 0
377 1 11.4764702727 17.285068388 -62.484058253 0 0 0
350 1 15.0385719317 15.2871818741 -62.48463701 0 0 0
381 1 13.8291272071 17.3377983324 -62.5072189706 0 0 0
354 1 17.3725558589 15.2734029446 -62.5338448792 0 0 0
385 1 16.2050378783 17.336302943 -62.5305287919 0 0 0
358 1 19.7293536127 15.259001283 -62.5725529028 0 0 0
389 1 18.5536787875 17.3005764873 -62.5408597795 0 0 0
393 1 20.8919657883 17.3016117904 -62.5325882205 0 0 0
382 1 12.6195995771 19.3547454068 -62.526103031 0 0 0
378 1 10.2735019845 19.3289040816 -62.5241193299 0 0 0
386 1 14.996171912 19.3680883282 -62.5455288302 0 0 0
390 1 17.3478485722 19.3512935808 -62.5121979923 0 0 0
394 1 19.6992930016 19.35073855 -62.5064298451 0 0 0
413 1 11.4228070505 21.3790930725 -62.5345543157 0 0 0
418 1 12.6236134858 23.4000890534 -62.5369070553 0 0 0
1493 1 13.830961037 22.7112217154 -46.3493722881 0 0 0
417 1 13.7893363804 21.3818719905 -62.5377945063 0 0 0
422 1 14.9926699649 23.4331598288 -62.5217625423 0 0 0
421 1 16.1457792056 21.4047319406 -62.526311198 0 0 0
426 1 17.3405885933 23.4356279416 -62.5124688318 0 0 0
425 1 18.5296929454 21.3912361818 -62.4906925424 0 0 0
430 1 19.7369206336 23.4152305121 -62.5144463147 0 0 0
1489 1 11.4822401978 22.7183952101 -46.3424201897 0 0 0
564 1 11.4941760503 14.5465746643 -60.6960801234 0 0 0
557 1 11.4940964813 13.1863723679 -58.9140400968 0 0 0
563 1 12.6776195247 12.5174801699 -60.7016204344 0 0 0
568 1 13.8566042683 14.5876221279 -60.6976592409 0 0 0
567 1 15.0401774366 12.5332199612 -60.7075972413 0 0 0
561 1 13.8555868461 13.2096971969 -58.9160832522 0 0 0
571 1 17.3821227366 12.5328975958 -60.7350314339 0 0 0
572 1 16.2084344456 14.5920227224 -60.7141815217 0 0 0
565 1 16.2082004909 13.2050311521 -58.9264591062 0 0 0
575 1 19.7293476011 12.5238699322 -60.7496200302 0 0 0
576 1 18.5502824982 14.577234347 -60.7426142757 0 0 0
569 1 18.5510422712 13.1988902336 -58.9419316724 0 0 0
595 1 10.3115072009 16.5947304315 -60.7103970433 0 0 0
599 1 12.6587174435 16.6212969945 -60.7052030456 0 0 0
562 1 12.6712108991 15.2502206358 -58.9123660688 0 0 0
558 1 10.312198862 15.2255381835 -58.9148799505 0 0 0
593 1 11.4817359996 17.2839506553 -58.9168987919 0 0 0
603 1 15.0229689664 16.6416617127 -60.7197097161 0 0 0
566 1 15.0242230948 15.2660180074 -58.92093514 0 0 0
597 1 13.8375902029 17.3045036105 -58.9203555637 0 0 0
607 1 17.3814476608 16.6257739207 -60.7376546591 0 0 0
570 1 17.375314318 15.254797389 -58.9335311986 0 0 0
601 1 16.1953023448 17.3070814489 -58.9295845262 0 0 0
611 1 19.7322751203 16.6115960671 -60.7462662018 0 0 0
574 1 19.7316359608 15.2486847837 -58.9470216834 0 0 0
605 1 18.5494808103 17.2959472468 -58.9379816286 0 0 0
1465 1 18.6514017188 18.5854954285 -46.2420320934 0 0 0
600 1 11.4667131548 18.6542695767 -60.7222346529 0 0 0
635 1 12.6289086653 20.694919712 -60.7334827701 0 0 0
598 1 12.6459082302 19.3354988961 -58.9263891439 0 0 0
604 1 13.826518055 18.6679559308 -60.7217727074 0 0 0
639 1 14.9912956199 20.7049266342 -60.7293159686 0 0 0
602 1 15.0077604266 19.3431052609 -58.9288584941 0 0 0
643 1 17.3522539071 20.7083211339 -60.7206583946 0 0 0
608 1 16.1941079917 18.6730606928 -60.7261091185 0 0 0
606 1 17.3630402543 19.3427411643 -58.9277966037 0 0 0
612 1 18.5424574662 18.6653305456 -60.72788988 0 0 0
647 1 19.7150187424 20.7019742203 -60.7224126545 0 0 0
610 1 19.7206389516 19.3423414015 -58.9360432929 0 0 0
580 1 -0.3526876335 18.6595319385 -60.7334155408 0 0 0
636 1 11.4451787194 22.7204252728 -60.7399560605 0 0 0
629 1 11.4565687511 21.3665644907 -58.9372489715 0 0 0
634 1 12.6407089334 23.4009417375 -58.9510520843 0 0 0
640 1 13.8070625128 22.7291570666 -60.7354252275 0 0 0
633 1 13.8199220187 21.3722845513 -58.9346983075 0 0 0
638 1 15.007476615 23.4164893368 -58.9352816244 0 0 0
644 1 16.1724635049 22.7513825156 -60.7240662829 0 0 0
637 1 16.182572313 21.3829337935 -58.931566526 0 0 0
642 1 17.3787767128 23.4226114107 -58.9341508236 0 0 0
648 1 18.547149059 22.7383184372 -60.7238345246 0 0 0
1500 1 19.7655522879 20.6416091475 -46.3271325566 0 0 0
641 1 18.5479072505 21.3816452269 -58.9282952676 0 0 0
646 1 19.7475363173 23.4151972437 -58.9420833975 0 0 0
779 1 12.6648725922 12.5188762025 -57.1224289383 0 0 0
780 1 11.4831607729 14.5577924593 -57.1235358606 0 0 0
783 1 15.0446831583 12.5257223726 -57.1300714376 0 0 0
784 1 13.8507782566 14.5793690899 -57.13432473 0 0 0
787 1 17.3835245272 12.5197912303 -57.1344559847 0 0 0
788 1 16.2044604173 14.5764528781 -57.1253248043 0 0 0
791 1 19.7304962117 12.5049123948 -57.162886099 0 0 0
792 1 18.5438443975 14.5695525059 -57.1430652196 0 0 0
814 1 12.660350537 16.6097088625 -57.123098828 0 0 0
818 1 15.0209313061 16.6203083965 -57.1249963261 0 0 0
822 1 17.3742985705 16.6183707376 -57.1305212136 0 0 0
826 1 19.727469731 16.6139391222 -57.1542738081 0 0 0
846 1 10.2870664761 20.6805677453 -57.1322332908 0 0 0
815 1 11.4742921061 18.644889216 -57.1251248254 0 0 0
850 1 12.6453316492 20.6827751968 -57.1308238405 0 0 0
819 1 13.8330309004 18.6527549642 -57.1261461068 0 0 0
854 1 15.007964483 20.6909776285 -57.1296217815 0 0 0
858 1 17.3698659744 20.6958131538 -57.1322009725 0 0 0
823 1 16.1934137494 18.657807605 -57.1275434639 0 0 0
862 1 19.7304708015 20.693732091 -57.13813797 0 0 0
3673 2 17.163579459 18.5167357696 -46.1519281123 0 0 0
827 1 18.5472447158 18.6570128587 -57.1351243856 0 0 0
851 1 11.4597858603 22.7132049923 -57.1436479327 0 0 0
855 1 13.8248781637 22.7170889333 -57.1458600137 0 0 0
859 1 16.194150824 22.7319775109 -57.1249424443 0 0 0
3671 2 16.2198065715 18.4661901373 -46.0892365542 0 0 0
863 1 18.5656060409 22.7284075621 -57.1450127649 0 0 0
3641 2 12.6437245004 12.3671981377 -53.2852271471 0 0 0
3644 2 11.6963312886 12.4176676101 -53.35312973 0 0 0
3642 2 12.6607893093 13.9029868328 -54.0060877293 0 0 0
991 1 11.4642559027 14.5671826477 -53.525760688 0 0 0
773 1 11.4660286897 13.196610974 -55.3264706116 0 0 0
994 1 15.0772351256 12.5371122163 -53.5064180574 0 0 0
3643 2 13.2694225893 12.1699765333 -53.9428779145 0 0 0
995 1 13.8547830273 14.5764459218 -53.5351355455 0 0 0
777 1 13.872829204 13.2331055 -55.3924078174 0 0 0
998 1 17.3807943711 12.520986639 -53.5206600138 0 0 0
999 1 16.2045822353 14.571904485 -53.5223995947 0 0 0
781 1 16.2099668016 13.2010047594 -55.3239821257 0 0 0
785 1 18.5311514951 13.1899491869 -55.3345778609 0 0 0
1002 1 19.7122384411 12.4743110177 -53.5013753319 0 0 0
1003 1 18.5100318769 14.5780507132 -53.5161938838 0 0 0
3639 2 -0.9278126803 14.2126721051 -53.9578320963 0 0 0
3672 2 16.1867883005 19.9992776342 -46.8156351541 0 0 0
778 1 12.6621609317 15.2541280112 -55.3413252404 0 0 0
808 1 11.4768115069 17.2834226478 -55.3201376995 0 0 0
1026 1 12.6540450901 16.6084416542 -53.5220434957 0 0 0
1022 1 10.2903127008 16.600242002 -53.5102710017 0 0 0
782 1 15.0260618659 15.2578191572 -55.336137048 0 0 0
812 1 13.8369467061 17.2934889859 -55.3224726024 0 0 0
1030 1 15.0216849562 16.6097422802 -53.5197583363 0 0 0
786 1 17.3688193004 15.2491108699 -55.3285591432 0 0 0
816 1 16.19600732 17.2949415051 -55.3271431582 0 0 0
1034 1 17.3710440736 16.6115010963 -53.5278540447 0 0 0
790 1 19.7105434718 15.2729599671 -55.4080867495 0 0 0
1038 1 19.7253275913 16.6119501959 -53.5443998013 0 0 0
820 1 18.5467736453 17.2961189668 -55.3444783202 0 0 0
1496 1 17.38684721 20.6615665819 -46.3398542199 0 0 0
809 1 10.2935660143 19.3198112048 -55.325579756 0 0 0
1027 1 11.4715905997 18.6405833419 -53.5231254847 0 0 0
1062 1 12.6481109856 20.6746318225 -53.5312119422 0 0 0
813 1 12.650654034 19.3245129022 -55.3270745993 0 0 0
1031 1 13.8308769004 18.6430414798 -53.5261767134 0 0 0
1066 1 15.0131852915 20.6800641617 -53.5332061408 0 0 0
817 1 15.0133413124 19.3308043217 -55.3284793666 0 0 0
1035 1 16.1959789698 18.6470512121 -53.5295347336 0 0 0
1070 1 17.3789330214 20.6823872832 -53.5362834507 0 0 0
821 1 17.372095795 19.3319640384 -55.33205981 0 0 0
825 1 19.7322198904 19.3346187737 -55.3378624602 0 0 0
1039 1 18.5514808016 18.6459355064 -53.5290178099 0 0 0
1074 1 19.7417530426 20.6817136077 -53.5365561318 0 0 0
3674 2 15.5856361576 18.29477338 -46.7389866483 0 0 0
1458 1 13.7783689435 18.6489810145 -46.2897600079 0 0 0
849 1 12.6465781622 23.3806623933 -55.3528548601 0 0 0
844 1 11.4632006177 21.356745686 -55.3339897847 0 0 0
1063 1 11.4622902226 22.6982147994 -53.5358234308 0 0 0
1067 1 13.8272092029 22.7009417067 -53.5312252898 0 0 0
853 1 14.9961812219 23.3915128994 -55.3444515804 0 0 0
848 1 13.8290657008 21.3595373003 -55.3332981084 0 0 0
852 1 16.1981164868 21.3689982008 -55.3337055717 0 0 0
857 1 17.4202150524 23.3958001465 -55.3487959462 0 0 0
1071 1 16.2070157866 22.7070141864 -53.5400052796 0 0 0
861 1 19.7666044528 23.4033515021 -55.3472114846 0 0 0
1075 1 18.582075022 22.712146618 -53.5411416312 0 0 0
856 1 18.5650698746 21.3675640609 -55.3355724296 0 0 0
1492 1 14.9972970223 20.6774121535 -46.3421187065 0 0 0
985 1 11.4583892486 13.2058541107 -51.6432736035 0 0 0
989 1 13.8568935546 13.2106981091 -51.7049278053 0 0 0
992 1 16.2074403098 13.2026752362 -51.712513852 0 0 0
996 1 18.5411707599 13.1945861397 -51.7057649762 0 0 0
1454 1 11.4581316759 18.6521056763 -46.3124386016 0 0 0
986 1 10.2879230286 15.2430627437 -51.6991867174 0 0 0
990 1 12.6533327551 15.248989989 -51.6998508488 0 0 0
1020 1 11.4690429473 17.2827048538 -51.7147891451 0 0 0
993 1 15.0194744881 15.2487110955 -51.7157811927 0 0 0
1024 1 13.8266680643 17.2834386487 -51.7237838532 0 0 0
997 1 17.3756681774 15.2428947357 -51.7205440453 0 0 0
1028 1 16.1980873271 17.2857464642 -51.7279189295 0 0 0
1001 1 19.7263775925 15.2454766397 -51.7116111113 0 0 0
1032 1 18.5588031559 17.2827896722 -51.7235148005 0 0 0
1021 1 10.2896691868 19.3194679637 -51.7199614086 0 0 0
1025 1 12.6468765608 19.3188397622 -51.7292293218 0 0 0
1029 1 15.011422757 19.3271388939 -51.7310040151 0 0 0
1033 1 17.3775513973 19.3225227948 -51.73104632 0 0 0
1037 1 19.7437859908 19.3170570424 -51.7299411507 0 0 0
1061 1 12.6517624449 23.3808013545 -51.7182979383 0 0 0
1056 1 11.4664374874 21.3550433315 -51.7271422228 0 0 0
1065 1 14.9993568037 23.3862927159 -51.728258214 0 0 0
1060 1 13.831283067 21.3569805298 -51.7367315447 0 0 0
1069 1 17.4187703502 23.388588745 -51.7386458805 0 0 0
1064 1 16.1998907007 21.3627223937 -51.7377700036 0 0 0
1073 1 19.7624537923 23.3908460476 -51.7466411219 0 0 0
1068 1 18.5677217433 21.3561228263 -51.7377860539 0 0 0
1206 1 11.474170936 14.5631888248 -49.8876898661 0 0 0
1199 1 11.4794163986 13.2050787443 -48.0850129917 0 0 0
1205 1 12.6584142393 12.5208307161 -49.8922638171 0 0 0
1201 1 10.2862489785 12.5160755041 -49.8825268632 0 0 0
1209 1 15.0261796025 12.5225590056 -49.9045697187 0 0 0
1210 1 13.8345793651 14.5601917205 -49.9037284019 0 0 0
1203 1 13.8334434085 13.2018045009 -48.0902941897 0 0 0
1214 1 16.2002189277 14.5578148144 -49.9094958603 0 0 0
1213 1 17.3829865818 12.527346622 -49.9128809998 0 0 0
1217 1 19.7417097152 12.5171859893 -49.9061578028 0 0 0
1218 1 18.5583025645 14.556511475 -49.9103741226 0 0 0
1211 1 18.5639630905 13.2099640526 -48.0969281805 0 0 0
1488 1 12.6410710384 20.6821733162 -46.3159614402 0 0 0
1200 1 10.2958026274 15.246134419 -48.0935535825 0 0 0
1235 1 11.4614319295 17.2830455681 -48.1059570164 0 0 0
1204 1 12.6472720028 15.236153882 -48.0999651157 0 0 0
1241 1 12.6457092844 16.601644404 -49.91209905 0 0 0
1239 1 13.8003707174 17.2708957662 -48.1155532868 0 0 0
1208 1 15.0053370237 15.2267604083 -48.1101780603 0 0 0
1245 1 15.0052814288 16.5918323628 -49.93943485 0 0 0
1243 1 16.2053219332 17.2580865601 -48.2032239257 0 0 0
1249 1 17.3905747778 16.5919437542 -49.940297752 0 0 0
1247 1 18.6011325254 17.2613892173 -48.1175791859 0 0 0
1216 1 19.7542306211 15.2332446392 -48.0965055757 0 0 0
1253 1 19.7525426928 16.5929013254 -49.9143223904 0 0 0
1277 1 12.6460757683 20.6787307729 -49.929015845 0 0 0
1273 1 10.2902252996 20.6789316347 -49.9238199868 0 0 0
1236 1 10.287474176 19.3244532345 -48.1116123436 0 0 0
1240 1 12.6351866358 19.3213289065 -48.1168582607 0 0 0
1242 1 11.4646093461 18.6404688003 -49.9162845975 0 0 0
1246 1 13.8148785505 18.6423258575 -49.929446725 0 0 0
1244 1 14.9863582988 19.3479103786 -48.1975966529 0 0 0
1281 1 15.007343019 20.6836657817 -49.9530094854 0 0 0
1248 1 17.3929996829 19.3156895447 -48.1348623255 0 0 0
1285 1 17.3825183796 20.6776207277 -49.9402765461 0 0 0
1250 1 16.1993004026 18.6428599752 -49.9289223583 0 0 0
1252 1 19.7676878861 19.2950776159 -48.1279806832 0 0 0
1254 1 18.577365614 18.6283422521 -49.9242768025 0 0 0
1289 1 19.747068312 20.66878785 -49.9305216323 0 0 0
1276 1 12.6609682019 23.3958988328 -48.1285337392 0 0 0
1271 1 11.4727411365 21.3618519986 -48.1228699136 0 0 0
1278 1 11.4734205115 22.7129215358 -49.9286953502 0 0 0
1272 1 10.3088283108 23.3973641255 -48.1224607272 0 0 0
1280 1 15.0152734415 23.3963907689 -48.1407438163 0 0 0
1275 1 13.8261066653 21.3625675272 -48.1420093074 0 0 0
1282 1 13.831835134 22.7107507606 -49.9294793881 0 0 0
1284 1 17.3868416148 23.3945125241 -48.1468131303 0 0 0
1279 1 16.194185531 21.362414606 -48.1545134969 0 0 0
1286 1 16.2006931213 22.7165254012 -49.9538039788 0 0 0
1288 1 19.7390654111 23.375131844 -48.1437645704 0 0 0
1283 1 18.5668499531 21.3467072384 -48.1424159067 0 0 0
1290 1 18.5699434617 22.7083592716 -49.9405515103 0 0 0
1418 1 11.4837667022 14.5596927163 -46.2902164889 0 0 0
1413 1 10.3129089361 12.5287448081 -46.2658985877 0 0 0
1417 1 12.6569262417 12.5268745891 -46.2715586788 0 0 0
1422 1 13.8333614801 14.5447485678 -46.2893084847 0 0 0
1421 1 15.0064340139 12.5270106492 -46.2715836728 0 0 0
1426 1 16.2008916274 14.5424641165 -46.2888366761 0 0 0
1425 1 17.3779517425 12.5413342077 -46.2853227288 0 0 0
1207 1 16.1996911312 13.2088699949 -48.0948196485 0 0 0
1430 1 18.5691444378 14.5548192884 -46.2858949351 0 0 0
1429 1 19.7429576488 12.539275333 -46.2742356473 0 0 0
1449 1 10.2911359502 16.6103063899 -46.3024890572 0 0 0
1453 1 12.6442809241 16.5966529888 -46.3084613381 0 0 0
1457 1 14.9927005886 16.5525799661 -46.2802043392 0 0 0
3675 2 16.2075376564 16.3041275026 -47.0658242743 0 0 0
1461 1 17.4175258428 16.5716263698 -46.282223129 0 0 0
1212 1 17.3950866464 15.2294810869 -48.1077308417 0 0 0
1464 1 19.7672604124 16.580543738 -46.2868822134 0 0 0
559 1 10.3078291958 12.4885714978 -60.7146051909 0 0 0
594 1 10.2925273908 19.3231131618 -58.9295976911 0 0 0
630 1 10.2737701972 23.4018911068 -58.9554717926 0 0 0
775 1 10.2872901251 12.4955044204 -57.1258470172 0 0 0
810 1 10.305871397 16.5973477594 -57.1219264236 0 0 0
774 1 10.2956846786 15.2371529856 -55.3273806536 0 0 0
1058 1 10.2880935358 20.6759900644 -53.530254496 0 0 0
1057 1 10.2769355113 23.3888693405 -51.7194337379 0 0 0
1237 1 10.2914986879 16.6030862608 -49.9050204015 0 0 0
1484 1 10.2916149707 20.6855316381 -46.3166096864 0 0 0
1411 1 11.4887862714 13.2060392563 -44.460089202 0 0 0
1415 1 13.8369475536 13.2010680856 -44.4627315786 0 0 0
1625 1 15.0065965593 12.5239196322 -42.6535982595 0 0 0
1419 1 16.2004177479 13.2128983177 -44.466474079 0 0 0
1634 1 18.5620192317 14.5649889167 -42.6618558381 0 0 0
1423 1 18.5582482134 13.2232495979 -44.4672992418 0 0 0
1447 1 11.4656725235 17.2942487691 -44.5433243302 0 0 0
1412 1 10.294218269 15.2422239015 -44.5100120121 0 0 0
1416 1 12.6641872928 15.2233595801 -44.4991348234 0 0 0
1451 1 13.8157472254 17.2580094073 -44.5074272295 0 0 0
1420 1 15.0235514333 15.2119411873 -44.4738111751 0 0 0
1424 1 17.3996187858 15.2292016968 -44.4650959918 0 0 0
1455 1 16.2243470688 17.2481399525 -44.479798681 0 0 0
1459 1 18.6045435733 17.2544251607 -44.4445877926 0 0 0
1428 1 19.755744644 15.2394897356 -44.4742430441 0 0 0
1452 1 12.6283545118 19.3370289775 -44.5212597209 0 0 0
1456 1 14.9972214128 19.3108486684 -44.4954790329 0 0 0
1460 1 17.4008675044 19.2834080842 -44.4329206254 0 0 0
1463 1 19.7798149776 19.2645536135 -44.4804059662 0 0 0
3690 2 12.6713717743 -1.1578382826 -43.109452911 0 0 0
1483 1 10.3223015496 23.3958624409 -44.5200875949 0 0 0
1482 1 11.4679509305 21.3649039631 -44.5016681943 0 0 0
1487 1 12.6604659021 23.3900905658 -44.5563877674 0 0 0
1486 1 13.8282740485 21.3496097021 -44.5098928059 0 0 0
1491 1 15.0015733029 23.3618769502 -44.5325859082 0 0 0
1490 1 16.1783458672 21.3257568775 -44.5082735795 0 0 0
1495 1 17.3674021047 23.3595438731 -44.5404230277 0 0 0
1494 1 18.5633401185 21.3087472133 -44.5567209023 0 0 0
1499 1 19.7601926565 23.3299072888 -44.5580146849 0 0 0
1622 1 11.5033688844 14.540271923 -42.628563523 0 0 0
1621 1 12.6573129918 12.5273379431 -42.6287493778 0 0 0
1615 1 11.4807108739 13.216141233 -40.7730111406 0 0 0
1626 1 13.8516129897 14.5291741845 -42.6568157474 0 0 0
1619 1 13.8339885054 13.183540964 -40.8439639317 0 0 0
1630 1 16.2061776355 14.5415007857 -42.6585320163 0 0 0
1629 1 17.3669031621 12.5436749893 -42.640176059 0 0 0
1623 1 16.1895740395 13.1960650331 -40.826329153 0 0 0
1633 1 19.707970534 12.5611837777 -42.6417844683 0 0 0
1627 1 18.5587925938 13.2227171077 -40.832646654 0 0 0
3733 2 11.2010402769 16.8360337803 -42.7200667163 0 0 0
1656 1 12.6799425067 16.5794626773 -42.7045108229 0 0 0
3735 2 10.3059219786 15.3200521453 -42.6155031824 0 0 0
1651 1 11.4510652511 17.3079106954 -40.7428091018 0 0 0
1620 1 12.6513403217 15.2260861967 -40.7983829572 0 0 0
1616 1 10.2720279307 15.2621038184 -40.7211711212 0 0 0
3740 2 13.847595463 16.2877536382 -41.8623248212 0 0 0
1660 1 15.0484530824 16.5515993932 -42.6674531731 0 0 0
1654 1 13.8247169164 17.2644499534 -40.7528180731 0 0 0
1624 1 15.0255495345 15.182060821 -40.873553511 0 0 0
1663 1 17.4027968095 16.5822009005 -42.6695696129 0 0 0
1658 1 16.2115052965 17.2540537349 -40.8366877237 0 0 0
1628 1 17.396069494 15.2476150063 -40.8667540703 0 0 0
1667 1 19.76267052 16.5871276093 -42.6616942701 0 0 0
1661 1 18.590117649 17.2824745319 -40.8686694445 0 0 0
1632 1 19.7630885237 15.2562159245 -40.8719076621 0 0 0
1690 1 12.6445989316 20.6833482645 -42.6587179192 0 0 0
1657 1 11.4643160676 18.7163142489 -42.6741195827 0 0 0
1655 1 12.6271599741 19.3564572883 -40.8333492395 0 0 0
1694 1 15.0165908458 20.6556410939 -42.6499317366 0 0 0
3737 2 13.8224010871 19.9831583326 -42.182749046 0 0 0
3739 2 12.9542385596 18.4489885574 -42.4699505886 0 0 0
3736 2 13.8492203632 18.2913220317 -42.3450338682 0 0 0
3738 2 14.7514139302 18.4151925355 -42.4641942987 0 0 0
1659 1 15.008352925 19.319122293 -40.8134187002 0 0 0
1698 1 17.3333031644 20.6110629521 -42.6449618044 0 0 0
1664 1 16.2359114637 18.6088112325 -42.658911968 0 0 0
1662 1 17.3696190177 19.2978571501 -40.7893804037 0 0 0
1702 1 19.7787018912 20.5769070257 -42.6851920962 0 0 0
1668 1 18.5919540555 18.5933262322 -42.6549096816 0 0 0
1666 1 19.7439582739 19.2845660197 -40.8523902742 0 0 0
1691 1 11.4627937696 22.7128698582 -42.6482454157 0 0 0
1689 1 12.657525861 23.4185279716 -40.7615352419 0 0 0
1684 1 11.4623622293 21.4022369235 -40.7994721162 0 0 0
1695 1 13.8550509043 22.6853857105 -42.6354224105 0 0 0
1693 1 14.9918258961 23.3831547063 -40.7651676744 0 0 0
1688 1 13.850887472 21.3638301368 -40.8118314682 0 0 0
3749 2 17.6192012392 22.8455110442 -42.6443135658 0 0 0
1699 1 16.1451485642 22.6375945088 -42.675839476 0 0 0
1697 1 17.325984697 23.3542129947 -40.8112789837 0 0 0
1692 1 16.1708665449 21.3320925397 -40.7702430963 0 0 0
3750 2 18.5668651934 21.3009193757 -42.6626172023 0 0 0
3746 2 18.5572689741 22.9905672017 -42.6223780611 0 0 0
3748 2 19.4901549824 22.8245841642 -42.6654395602 0 0 0
3747 2 18.5761757767 24.116442288 -42.0527396036 0 0 0
1701 1 19.7611142288 23.2707422691 -40.8393413634 0 0 0
1696 1 18.5261832057 21.3098898108 -40.7686586825 0 0 0
1820 1 11.4611336551 14.5801682896 -38.9432760604 0 0 0
1819 1 12.640933127 12.5142929385 -38.968363126 0 0 0
1816 1 10.3304497737 12.565984734 -38.932296509 0 0 0
1824 1 13.8489793363 14.5059674438 -39.0704198632 0 0 0
3818 2 13.4105241393 14.9061632856 -37.6742682183 0 0 0
1823 1 14.9881542252 12.4765985049 -39.0468879841 0 0 0
1826 1 16.1561899263 14.5165051996 -38.9902274218 0 0 0
1825 1 17.3293229912 12.4982850007 -39.0101687101 0 0 0
3830 2 17.5209788759 13.9463469082 -37.8007309076 0 0 0
1829 1 19.7307632011 12.5587337125 -38.9596120281 0 0 0
1830 1 18.6466496632 14.6037691862 -39.1778583723 0 0 0
1851 1 12.6164374739 16.6006519743 -38.9465872413 0 0 0
3836 2 14.621907409 17.96212573 -38.0765542819 0 0 0
1854 1 14.956245442 16.4229403969 -39.1247443554 0 0 0
3845 2 16.0729004523 16.2522899319 -37.6032157951 0 0 0
1858 1 17.4121294785 16.6380500399 -39.1913501046 0 0 0
1861 1 19.7932983149 16.6231055491 -39.0307780194 0 0 0
1882 1 12.6991784219 20.7100911367 -39.0967239552 0 0 0
1852 1 11.439714915 18.7106932094 -38.9426825887 0 0 0
1886 1 15.0112299054 20.705596973 -38.9949025719 0 0 0
1855 1 13.7968093266 18.6855531054 -39.0781778662 0 0 0
1890 1 17.3566904058 20.6893133318 -38.9808821342 0 0 0
1859 1 16.1628692844 18.6390150529 -38.9569881043 0 0 0
1893 1 19.7108356075 20.6388374346 -39.0030694689 0 0 0
1862 1 18.5877914271 18.672446483 -39.0262316032 0 0 0
2663 1 18.4229761723 22.8130167182 -23.9966479793 0 0 0
1883 1 11.4538891923 22.7737700053 -38.9755330961 0 0 0
1887 1 13.8671023309 22.767611447 -38.9655832661 0 0 0
1891 1 16.1692928526 22.7420652182 -38.9504026992 0 0 0
1894 1 18.5140899848 22.6605074071 -39.0417028169 0 0 0
1865 1 -0.3628126792 22.596787715 -39.0229485001 0 0 0
2026 1 11.4388499424 14.6523457953 -35.1104094982 0 0 0
3820 2 12.8776459238 14.1663190329 -36.2418386807 0 0 0
2025 1 12.6401848606 12.5853633734 -35.2158176178 0 0 0
1814 1 11.4587261473 13.2334481251 -37.0883481921 0 0 0
2029 1 14.9193372314 12.5371810092 -35.0922056525 0 0 0
1818 1 13.9109848156 12.9990048283 -37.3064865692 0 0 0
3824 2 17.2714102061 13.3271271427 -36.2029126992 0 0 0
2033 1 17.3047994943 12.5022554687 -35.0035255756 0 0 0
3829 2 16.6971798533 14.867610962 -36.6340853421 0 0 0
3822 2 18.0667182148 14.2272500942 -37.4112415784 0 0 0
1821 1 16.0463129264 13.1130210476 -36.9511602835 0 0 0
2038 1 18.5743253466 14.5299308671 -34.9868291959 0 0 0
2037 1 19.7812195345 12.5448518836 -35.1092165816 0 0 0
3821 2 18.7485157363 12.7851258031 -36.8343759478 0 0 0
3823 2 19.6290171526 12.9871209741 -36.9466884389 0 0 0
2061 1 12.6010939046 16.6538471879 -35.0219083811 0 0 0
1847 1 11.3855839012 17.3082340022 -37.0447741799 0 0 0
3839 2 12.7662355935 17.8510224175 -36.8555471534 0 0 0
3819 2 11.6593720805 15.1156339494 -36.9430810093 0 0 0
3816 2 12.6451436004 14.9639637912 -36.8195050938 0 0 0
2065 1 14.9903380814 16.5955433601 -35.1073055991 0 0 0
3838 2 15.033362698 17.596553325 -37.5700156593 0 0 0
3840 2 13.7227140145 16.481284661 -36.5440081221 0 0 0
3817 2 13.7406474328 16.5285968788 -37.2913500319 0 0 0
1822 1 14.8052234521 14.9861921114 -36.9810314142 0 0 0
3841 2 16.532828831 17.9028679511 -36.2228793597 0 0 0
3826 2 17.2567281224 15.1232027436 -36.2161266829 0 0 0
2069 1 17.4367848758 16.592704265 -35.027295401 0 0 0
3843 2 17.3734526208 17.6872039192 -36.5699357393 0 0 0
3827 2 17.7564674096 16.2466538317 -37.3859258275 0 0 0
3844 2 16.0453542135 16.4170214181 -36.882029168 0 0 0
2073 1 19.7857463524 16.6196101146 -35.1005379892 0 0 0
1856 1 18.6881128218 17.3678375706 -37.1224667396 0 0 0
3849 2 20.1570574334 17.1414691922 -36.8885103771 0 0 0
3828 2 18.5225813734 15.8551702693 -37.2602194979 0 0 0
1828 1 19.8168252727 15.173579651 -37.0447458194 0 0 0
2097 1 12.6857281531 20.6644676317 -35.0596252683 0 0 0
2062 1 11.4299020502 18.6905819688 -35.0647118033 0 0 0
1850 1 12.6878643694 19.4119957979 -37.0588042883 0 0 0
3865 2 11.56806896 20.8870687325 -37.5862141066 0 0 0
3832 2 10.7870423882 21.0485019352 -37.166796654 0 0 0
3833 2 11.1745567463 19.4377626719 -36.7906517397 0 0 0
2101 1 14.9878131558 20.7211444299 -35.1781713746 0 0 0
1853 1 14.8996216543 19.5031261621 -37.0098844043 0 0 0
3837 2 13.5859126834 18.1631772256 -36.7462916976 0 0 0
2105 1 17.3825049557 20.7176622433 -35.2163270243 0 0 0
2070 1 16.1889274149 18.7531404604 -35.0434016936 0 0 0
1857 1 17.3798477211 19.4848168214 -37.1449507872 0 0 0
3842 2 16.1053873696 18.7487089541 -36.9301101242 0 0 0
2109 1 19.7027104167 20.6637612661 -35.1996106131 0 0 0
2074 1 18.5901891075 18.6899513982 -35.1554124965 0 0 0
2637 1 -0.3780319702 22.8730815413 -23.5408961543 0 0 0
1860 1 19.6850439954 19.3670438349 -37.0950609185 0 0 0
4342 2 19.0922531025 24.0553716296 -22.4029174207 0 0 0
3861 2 11.9136268866 21.9217914326 -36.2831030106 0 0 0
2098 1 11.4302139268 22.7954716541 -35.1417610529 0 0 0