# LAMMPS data file written by OVITO Basic 3.10.6

19840 atoms
2 atom types

-11.0542229498 31.618338692 xlo xhi
-12.7643171915 36.5097127103 ylo yhi
-68.1371556521 48.7765125133 zlo zhi

Masses

1 9.012182  # Be
2 2.014

Atoms  # atomic

131 1 12.68914686 12.4518117372 -66.719669476 0 0 0
135 1 14.9263005217 12.4874090628 -66.8957131384 0 0 0
139 1 17.3923214824 12.5524825837 -66.7605378752 0 0 0
143 1 19.7340303969 12.6586315037 -66.8623448445 0 0 0
163 1 10.5626919909 16.6404929069 -66.5276993062 0 0 0
167 1 12.7453741427 16.5241282878 -66.7618539247 0 0 0
132 1 11.4235322234 14.421471361 -66.7325319648 0 0 0
136 1 13.827354271 14.4014147625 -66.6810510634 0 0 0
171 1 14.8089230482 16.6984236863 -66.8577076972 0 0 0
175 1 17.2733509199 16.5376124304 -66.6224055298 0 0 0
140 1 16.0733507715 14.5909241881 -66.6693145704 0 0 0
179 1 19.8378650597 16.6063310195 -66.6490456612 0 0 0
144 1 18.5713692736 14.5752443597 -66.6552123309 0 0 0
112 1 -0.430575554 14.4583494615 -66.5962112563 0 0 0
168 1 11.5049035238 18.5762272891 -66.7288432744 0 0 0
172 1 13.8536547948 18.7226097522 -66.673478837 0 0 0
176 1 16.0779434525 18.643315699 -66.6640303664 0 0 0
180 1 18.4805545305 18.5329007939 -66.7198975772 0 0 0
199 1 10.3714917853 20.8026743073 -66.813230607 0 0 0
203 1 12.646642211 20.7239017545 -66.6660679494 0 0 0
207 1 15.0316112614 20.6598245449 -66.7497634229 0 0 0
211 1 17.4599811437 20.6525062546 -66.7747911744 0 0 0
215 1 19.8371196664 20.5604381061 -66.533973672 0 0 0
204 1 11.7028468822 22.9591824686 -66.6878185136 0 0 0
208 1 13.8513615442 22.8545960618 -66.4363761181 0 0 0
212 1 16.2425006315 22.7235839484 -66.5084463923 0 0 0
216 1 18.608281357 22.8830292611 -66.6017886952 0 0 0
347 1 12.6709361933 12.4870550507 -63.0780179602 0 0 0
125 1 11.466165108 13.1663912616 -64.8616783647 0 0 0
343 1 10.2921876503 12.4985521563 -63.0622391169 0 0 0
351 1 15.0321909845 12.4944059771 -63.1005633415 0 0 0
129 1 13.839407168 13.146882162 -64.898166563 0 0 0
355 1 17.4046817668 12.5104949332 -63.1234978578 0 0 0
133 1 16.181279829 13.1962736682 -64.948781148 0 0 0
359 1 19.7835762965 12.5172494125 -63.1049980499 0 0 0
137 1 18.582778605 13.2248810446 -64.9242465386 0 0 0
141 1 20.9397582025 13.2004527704 -64.8725171447 0 0 0
130 1 12.6757912073 15.1756054014 -64.9218389459 0 0 0
348 1 11.4897255091 14.5290794895 -63.0792876762 0 0 0
383 1 12.6915780061 16.5934825226 -63.0916957403 0 0 0
379 1 10.3370307493 16.5904406289 -63.0613920986 0 0 0
387 1 15.0150009619 16.6108186449 -63.0907090843 0 0 0
134 1 14.9901261714 15.2202220671 -64.9109349386 0 0 0
352 1 13.8483483327 14.5365979129 -63.0986599278 0 0 0
391 1 17.3891574503 16.5915516002 -63.0977922354 0 0 0
138 1 17.347280872 15.2476382981 -64.882255145 0 0 0
356 1 16.2053724467 14.5581607432 -63.0990209045 0 0 0
142 1 19.7719506312 15.2313142436 -64.8737463599 0 0 0
360 1 18.5873389924 14.5598933878 -63.0998704821 0 0 0
395 1 19.7945816825 16.5947028514 -63.1022053854 0 0 0
1287 1 19.8680642849 23.4575414 -46.875091029 0 0 0
384 1 11.5222431911 18.6613635578 -63.0727486903 0 0 0
161 1 11.5422543233 17.2563235167 -64.8286349051 0 0 0
388 1 13.861041733 18.6757890794 -63.0965910266 0 0 0
165 1 13.8513336436 17.2740933959 -64.9078997381 0 0 0
392 1 16.2121081382 18.6542912779 -63.0966626015 0 0 0
169 1 16.1443163959 17.292051389 -64.9048594368 0 0 0
396 1 18.5978352998 18.6260438464 -63.0966153196 0 0 0
173 1 18.5538034073 17.2654803923 -64.8979002292 0 0 0
1501 1 18.6423972268 22.7866437632 -45.0213627733 0 0 0
415 1 10.3443461438 20.7314732489 -63.0988464468 0 0 0
197 1 11.5238587058 21.4206103758 -64.9182911475 0 0 0
419 1 12.6924383385 20.7213796235 -63.0866503586 0 0 0
166 1 12.6889608728 19.3472000731 -64.8930256403 0 0 0
162 1 10.3668952282 19.3260412287 -64.8406911579 0 0 0
170 1 15.020062544 19.3430425022 -64.8751797179 0 0 0
201 1 13.8705386606 21.3963850017 -64.8636135683 0 0 0
423 1 15.0607296107 20.7069593672 -63.0799288673 0 0 0
174 1 17.3944803345 19.305943142 -64.919396466 0 0 0
205 1 16.2517136858 21.3726316025 -64.8738617783 0 0 0
427 1 17.4361439297 20.6951580947 -63.0907338107 0 0 0
209 1 18.6272025293 21.3760868318 -64.8906792968 0 0 0
431 1 19.8135842355 20.6880558726 -63.0842326448 0 0 0
178 1 19.8031548357 19.2922147543 -64.8767450171 0 0 0
420 1 11.5227414688 22.8001692799 -63.0889775425 0 0 0
202 1 12.7131901678 23.5109480072 -64.8015612425 0 0 0
198 1 10.358833177 23.4822638361 -64.9439605004 0 0 0
424 1 13.8924087436 22.7872193073 -63.061463644 0 0 0
206 1 15.0782967403 23.4784316067 -64.8139405905 0 0 0
428 1 16.2630358279 22.769549854 -63.0656289258 0 0 0
210 1 17.4652858413 23.4652125264 -64.7884241726 0 0 0
432 1 18.6256999054 22.7752462072 -63.0573229119 0 0 0
214 1 19.801137266 23.4849612569 -64.8417860008 0 0 0
341 1 11.48975615 13.1832623742 -61.2738685132 0 0 0
345 1 13.8634692868 13.1797197834 -61.2874365262 0 0 0
349 1 16.2316392591 13.1902521286 -61.3066995348 0 0 0
353 1 18.6046774282 13.19700052 -61.3038637986 0 0 0
346 1 12.6868894084 15.2242742048 -61.2876873027 0 0 0
342 1 10.3167075396 15.2334862051 -61.2748647591 0 0 0
350 1 15.0405012442 15.2355664904 -61.2974641629 0 0 0
354 1 17.4109660727 15.2426184555 -61.3006960523 0 0 0
358 1 19.7946595697 15.2398287565 -61.2937252481 0 0 0
377 1 11.516738577 17.2821289591 -61.2801796289 0 0 0
381 1 13.8682827357 17.2863572931 -61.2868094654 0 0 0
385 1 16.224094208 17.2912149438 -61.2958157827 0 0 0
389 1 18.6068194686 17.2854556351 -61.2989473158 0 0 0
378 1 10.3353611972 19.3449984364 -61.285995009 0 0 0
413 1 11.5123734098 21.4096833092 -61.2926012818 0 0 0
382 1 12.6916106303 19.3494006002 -61.2856642983 0 0 0
417 1 13.8829099248 21.4049705848 -61.2847313119 0 0 0
386 1 15.05595244 19.3503600158 -61.2888648583 0 0 0
421 1 16.2571024087 21.3922462847 -61.2852224351 0 0 0
390 1 17.4303377503 19.3328726335 -61.2977406228 0 0 0
425 1 18.6299713059 21.3835533663 -61.2864723383 0 0 0
394 1 19.8080803762 19.3263326678 -61.2982997805 0 0 0
418 1 12.7008398113 23.4703125979 -61.2865371426 0 0 0
414 1 10.3342298283 23.4571542858 -61.2998902851 0 0 0
422 1 15.0762518666 23.4569267059 -61.2755793261 0 0 0
426 1 17.4477997099 23.4492180062 -61.2714379409 0 0 0
430 1 19.8172713468 23.4482318366 -61.2757218034 0 0 0
563 1 12.6813155049 12.499657373 -59.4812307794 0 0 0
557 1 11.4966337365 13.1882318203 -57.6760123883 0 0 0
559 1 10.3026279094 12.5033134388 -59.4779363655 0 0 0
567 1 15.0590660525 12.5039694019 -59.4972564357 0 0 0
561 1 13.8818409706 13.1880340659 -57.6876113422 0 0 0
571 1 17.4331128288 12.5105364392 -59.5037057283 0 0 0
575 1 19.8025012815 12.508780148 -59.4950917958 0 0 0
599 1 12.6911545207 16.6040162208 -59.4879285972 0 0 0
564 1 11.4988309728 14.54770104 -59.4798666886 0 0 0
595 1 10.3249259004 16.6041459254 -59.4819707707 0 0 0
568 1 13.8707444195 14.5510909073 -59.4893790198 0 0 0
603 1 15.052780744 16.6092917969 -59.4913251783 0 0 0
607 1 17.4248454659 16.6060825135 -59.4983091994 0 0 0
572 1 16.2414395371 14.5573367543 -59.4992414247 0 0 0
611 1 19.8021611078 16.6031608638 -59.4946962621 0 0 0
574 1 19.8033918179 15.240511679 -57.6961525694 0 0 0
576 1 18.6130972616 14.5597178396 -59.4945996914 0 0 0
600 1 11.5123801902 18.6623965414 -59.4872481703 0 0 0
604 1 13.8748531147 18.6656984017 -59.4918238371 0 0 0
597 1 13.8789977281 17.2929349211 -57.6923585007 0 0 0
608 1 16.2440313387 18.6592042214 -59.4937622522 0 0 0
612 1 18.6178836302 18.6500401026 -59.4960638088 0 0 0
605 1 18.6187198986 17.28967589 -57.6984208973 0 0 0
635 1 12.6946929086 20.719501622 -59.4923747017 0 0 0
594 1 10.3245445666 19.3456930242 -57.6918824442 0 0 0
631 1 10.3290115047 20.718058669 -59.4926627154 0 0 0
639 1 15.0681816551 20.7149189874 -59.4912169541 0 0 0
602 1 15.0662579041 19.3470884931 -57.6944575525 0 0 0
643 1 17.4425727494 20.705930834 -59.4905586175 0 0 0
637 1 16.2613429682 21.394739059 -57.6953139587 0 0 0
647 1 19.8119876587 20.7016134377 -59.4933098896 0 0 0
636 1 11.5109361628 22.7749399006 -59.4957713083 0 0 0
634 1 12.6933669866 23.4556945679 -57.7034076063 0 0 0
640 1 13.8859704951 22.7734626845 -59.4912081188 0 0 0
644 1 16.2623262769 22.7655444229 -59.4865746916 0 0 0
642 1 17.4525582339 23.4465306261 -57.6892329637 0 0 0
648 1 18.6323239045 22.7614879517 -59.4851128542 0 0 0
778 1 12.6981945881 12.4970681708 -55.8747698292 0 0 0
774 1 10.2894296258 12.4999493331 -55.8815123201 0 0 0
782 1 15.0811915436 12.5075829482 -55.8971961756 0 0 0
565 1 16.2552080032 13.1925929771 -57.6974257189 0 0 0
786 1 17.4538364487 12.5082778216 -55.8900465974 0 0 0
569 1 18.6234303488 13.1921541184 -57.6973328925 0 0 0
790 1 19.8122568418 12.5059904385 -55.8922632359 0 0 0
558 1 10.3156977431 15.2394868324 -57.6851900808 0 0 0
562 1 12.6936999477 15.2357139198 -57.6858114058 0 0 0
814 1 12.6972847917 16.6085713387 -55.8937718534 0 0 0
779 1 11.5037310854 14.5530259781 -55.8865871982 0 0 0
810 1 10.3185264242 16.6103970592 -55.9006139794 0 0 0
566 1 15.0640131311 15.2403630646 -57.6947203987 0 0 0
783 1 13.8960124842 14.5542799627 -55.8862186461 0 0 0
818 1 15.0718320643 16.6105053477 -55.8937584162 0 0 0
570 1 17.433079616 15.2421568347 -57.6968063181 0 0 0
822 1 17.4378371128 16.6072737433 -55.8958366492 0 0 0
787 1 16.2616519223 14.5575363032 -55.8945656018 0 0 0
791 1 18.6258750242 14.5571262241 -55.8939286426 0 0 0
826 1 19.8049040761 16.6053972118 -55.8949488751 0 0 0
593 1 11.5088629475 17.2903050519 -57.6891735653 0 0 0
815 1 11.5085249324 18.6600534232 -55.8957472537 0 0 0
819 1 13.8839746088 18.6612005879 -55.8945486674 0 0 0
601 1 16.2469196753 17.2930405181 -57.6982662465 0 0 0
823 1 16.2539851723 18.6595403899 -55.8944479365 0 0 0
827 1 18.6226834151 18.6558397218 -55.8957425699 0 0 0
629 1 11.5082339955 21.399469953 -57.6962274375 0 0 0
598 1 12.6944859406 19.346466466 -57.6933504928 0 0 0
850 1 12.6938978539 20.7098889314 -55.9001040703 0 0 0
846 1 10.3207157663 20.7091595832 -55.8939629642 0 0 0
633 1 13.8809358872 21.4006841235 -57.6970690917 0 0 0
854 1 15.0709245321 20.7075941448 -55.8986059938 0 0 0
606 1 17.4387733244 19.3405995387 -57.6964416551 0 0 0
858 1 17.4445267125 20.7064342916 -55.8991111599 0 0 0
641 1 18.6309211404 21.3895569191 -57.6940751945 0 0 0
610 1 19.8091302061 19.337041024 -57.6952831551 0 0 0
862 1 19.811825316 20.7069350747 -55.8932602056 0 0 0
851 1 11.5024441371 22.7628034023 -55.9083912236 0 0 0
630 1 10.3207349432 23.4493496345 -57.7021582694 0 0 0
638 1 15.0747610564 23.4533309335 -57.6950398404 0 0 0
855 1 13.8761963433 22.7639196878 -55.9079590041 0 0 0
859 1 16.2696873375 22.7606618055 -55.9009310124 0 0 0
646 1 19.818126967 23.4439445767 -57.6871663119 0 0 0
863 1 18.637522239 22.7629334165 -55.8986023865 0 0 0
772 1 11.4984613935 13.1885904933 -54.0863484957 0 0 0
776 1 13.932920756 13.1796848969 -54.1044516741 0 0 0
780 1 16.2729105973 13.1861021241 -54.0923960477 0 0 0
784 1 18.6312204441 13.1857022801 -54.0925982495 0 0 0
3641 2 11.469003074 14.3103820991 -52.556456509 0 0 0
777 1 12.7197845122 15.2471244551 -54.0959672986 0 0 0
781 1 15.087647263 15.237795552 -54.0929946539 0 0 0
785 1 17.4440926038 15.2368034262 -54.0944955187 0 0 0
789 1 19.8053052402 15.2362413219 -54.0943532737 0 0 0
808 1 11.5087804016 17.2961361402 -54.102956699 0 0 0
812 1 13.893587745 17.2949623223 -54.0980312328 0 0 0
816 1 16.2570855822 17.2908655869 -54.0965413951 0 0 0
820 1 18.6212857939 17.2876813371 -54.0967041359 0 0 0
809 1 10.3190158677 19.3438629382 -54.0923880616 0 0 0
813 1 12.6942287989 19.3431628413 -54.0954551466 0 0 0
844 1 11.5010866698 21.3893408821 -54.0996006845 0 0 0
848 1 13.8735274834 21.3858511638 -54.1116427984 0 0 0
817 1 15.0709183598 19.3414648045 -54.0989922882 0 0 0
852 1 16.2696616468 21.3833745045 -54.1128981923 0 0 0
821 1 17.441601446 19.3386059255 -54.0987366301 0 0 0
856 1 18.6361674749 21.3893095802 -54.0937175779 0 0 0
825 1 19.8084498175 19.3389305296 -54.0965286912 0 0 0
849 1 12.672082436 23.4413576057 -54.1288190163 0 0 0
845 1 10.308339001 23.4401136794 -54.1091591056 0 0 0
853 1 15.0728349601 23.4381327565 -54.1307114642 0 0 0
857 1 17.4781885331 23.4456631621 -54.1047877573 0 0 0
861 1 19.8256327013 23.4463753237 -54.0898616574 0 0 0
3645 2 11.5189301313 12.5059565102 -52.2802267069 0 0 0
991 1 12.8620814987 12.5008022475 -52.2836089093 0 0 0
3643 2 12.1336380497 14.2152889704 -51.9183352064 0 0 0
985 1 11.5108992544 13.1763227634 -50.4566538283 0 0 0
994 1 15.1020907308 12.5011494118 -52.2834547331 0 0 0
989 1 13.9395972646 13.1722985081 -50.4607831828 0 0 0
998 1 17.4534627291 12.4978122671 -52.2896443836 0 0 0
992 1 16.2686709436 13.17521629 -50.4814761696 0 0 0
1002 1 19.8119288215 12.4988930577 -52.292049538 0 0 0
996 1 18.6239706291 13.174164617 -50.4879812225 0 0 0
1026 1 12.7125953498 16.6069374705 -52.2848399637 0 0 0
3644 2 10.532759332 14.4081646205 -52.4523377129 0 0 0
990 1 12.7307108605 15.2493965364 -50.442964457 0 0 0
986 1 10.3091905661 15.2473785248 -50.4599961814 0 0 0
3642 2 11.5118566246 15.9205131645 -51.8312793312 0 0 0
1022 1 10.3121483163 16.610286824 -52.2864529694 0 0 0
1030 1 15.084641931 16.6081283177 -52.2925866342 0 0 0
995 1 13.9578956112 14.5676913833 -52.2969034063 0 0 0
993 1 15.0858181097 15.229370291 -50.4888384219 0 0 0
1034 1 17.4397446414 16.6023426123 -52.2948008149 0 0 0
999 1 16.2718519774 14.5512736471 -52.2882840021 0 0 0
997 1 17.4362134657 15.2259865908 -50.4906395187 0 0 0
1038 1 19.79845463 16.6030652373 -52.291871806 0 0 0
1003 1 18.6254862034 14.5496765592 -52.2923943581 0 0 0
1001 1 19.791696017 15.2261253121 -50.4884153125 0 0 0
1027 1 11.5084181837 18.6589822424 -52.2914951107 0 0 0
1020 1 11.5126779887 17.2930690665 -50.4696674439 0 0 0
1031 1 13.8886149242 18.6562310904 -52.2977671928 0 0 0
1024 1 13.8900311085 17.2890052925 -50.4819280329 0 0 0
1035 1 16.2559212537 18.653756601 -52.2985522522 0 0 0
1028 1 16.2516644665 17.2828772858 -50.4953723651 0 0 0
1039 1 18.6193124054 18.6549057792 -52.2961613227 0 0 0
1032 1 18.6107668082 17.2801630651 -50.4967280866 0 0 0
3654 2 16.4572689715 23.5675282359 -47.045333477 0 0 0
1021 1 10.3211877206 19.3399201422 -50.48539931 0 0 0
1058 1 10.3176922668 20.7029963981 -52.2927747163 0 0 0
1062 1 12.6885800049 20.6988517308 -52.2982442642 0 0 0
1025 1 12.6900513598 19.3375299216 -50.4942353537 0 0 0
1056 1 11.4996899157 21.3812332517 -50.4955830698 0 0 0
1066 1 15.0687055218 20.6915685465 -52.3021153762 0 0 0
1029 1 15.0623539643 19.3346546392 -50.5003234217 0 0 0
1060 1 13.8566676155 21.3769338475 -50.4935395058 0 0 0
1070 1 17.4449549442 20.6989203084 -52.2987784838 0 0 0
1033 1 17.4350187948 19.3333105597 -50.5021441458 0 0 0
1064 1 16.2622235982 21.3757634396 -50.505613265 0 0 0
1074 1 19.8094794177 20.7082918757 -52.2953075818 0 0 0
1037 1 19.7997299865 19.3399299323 -50.4936630053 0 0 0
1068 1 18.6330718687 21.3882021499 -50.4969772914 0 0 0
1063 1 11.4954498522 22.7516203707 -52.3082150586 0 0 0
1061 1 12.6638526989 23.4288686277 -50.4918617993 0 0 0
1057 1 10.3122567497 23.4369655283 -50.489288716 0 0 0
1067 1 13.8497682759 22.7463008124 -52.3220919528 0 0 0
3635 2 15.0689599583 -2.165524201 -51.5502595433 0 0 0
1065 1 15.0463087336 23.4458437508 -50.4297938581 0 0 0
1071 1 16.2913746009 22.7315208787 -52.3237793168 0 0 0
1069 1 17.4835210384 23.4460205748 -50.4906605765 0 0 0
1075 1 18.6474752122 22.767423 -52.2923291683 0 0 0
1073 1 19.8366678623 23.4534014891 -50.4809209753 0 0 0
1202 1 10.3243746143 12.4797369339 -48.6894383256 0 0 0
1206 1 12.7236348531 12.4855175512 -48.6719862471 0 0 0
1210 1 15.0801079696 12.4920603763 -48.6651482347 0 0 0
1214 1 17.4405410337 12.487674403 -48.6824020404 0 0 0
1218 1 19.8081661997 12.4839769399 -48.6919799375 0 0 0
1207 1 11.5315892751 14.5437317819 -48.6674222082 0 0 0
1241 1 12.7080025167 16.6023143879 -48.6733229267 0 0 0
1237 1 10.3371363953 16.6078622912 -48.6723145557 0 0 0
1211 1 13.9064546694 14.5457923372 -48.6756464069 0 0 0
1245 1 15.0677619658 16.5965331337 -48.6898813261 0 0 0
1215 1 16.2534027728 14.5396912191 -48.6841073008 0 0 0
1249 1 17.4214084197 16.5917302101 -48.6980564132 0 0 0
1219 1 18.6090887429 14.5358240704 -48.6939146764 0 0 0
1253 1 19.7668548446 16.5964783807 -48.6928610523 0 0 0
1242 1 11.5116277295 18.6535280672 -48.6814159894 0 0 0
1246 1 13.8745554891 18.6502192667 -48.6957735106 0 0 0
1250 1 16.2418261749 18.6450255075 -48.7030080965 0 0 0
1254 1 18.6006136777 18.6535569162 -48.6976240066 0 0 0
1277 1 12.6791774708 20.6989306764 -48.6921590284 0 0 0
1273 1 10.3213287002 20.7009356055 -48.6832988221 0 0 0
1281 1 15.0449549165 20.6941849768 -48.7141162562 0 0 0
1284 1 17.4283840943 20.6983046017 -48.7086553034 0 0 0
1288 1 19.7988479495 20.7118701162 -48.6885474471 0 0 0
1278 1 11.4938417489 22.7483283511 -48.6769750223 0 0 0
1282 1 13.8258336863 22.7630125309 -48.696692908 0 0 0
1285 1 16.2399254804 22.7370521888 -48.7374393256 0 0 0
1289 1 18.6478716884 22.7655179988 -48.6865966562 0 0 0
1418 1 12.7011670133 12.487595251 -45.0469187336 0 0 0
1415 1 10.3613738213 12.4519957924 -45.0306238268 0 0 0
1200 1 11.5473118017 13.1645788224 -46.8685411271 0 0 0
1422 1 15.0426681613 12.4924589263 -45.0406964323 0 0 0
1204 1 13.8923280324 13.1692287105 -46.8625940309 0 0 0
1426 1 17.4226608321 12.4887492348 -45.0636127737 0 0 0
1208 1 16.2416344947 13.1688922183 -46.8636758267 0 0 0
1430 1 19.8166948161 12.4682141728 -45.0929247965 0 0 0
1212 1 18.6076269594 13.1624282269 -46.8782376614 0 0 0
1449 1 10.3589871135 16.5881310829 -45.0382402261 0 0 0
1419 1 11.5747308267 14.5485168443 -45.0677467466 0 0 0
1453 1 12.7022170885 16.5801230247 -45.0771848229 0 0 0
1205 1 12.7131413804 15.2197269182 -46.8713821531 0 0 0
1201 1 10.3591286866 15.2364789725 -46.8693821991 0 0 0
1423 1 13.8812810127 14.5295575993 -45.0546261367 0 0 0
1457 1 15.0458936904 16.5627057925 -45.0831832984 0 0 0
1209 1 15.0599346537 15.2157441559 -46.8738614717 0 0 0
1427 1 16.2262691584 14.5203707318 -45.0639374837 0 0 0
1461 1 17.3988085791 16.5565311101 -45.108809087 0 0 0
1213 1 17.4119944886 15.2096085377 -46.8825364848 0 0 0
1431 1 18.5894059929 14.5085719273 -45.0742579803 0 0 0
1465 1 19.6808895956 16.5812100826 -45.1057135741 0 0 0
1217 1 19.7483300349 15.2029721398 -46.8887814923 0 0 0
1454 1 11.5072578896 18.6430317901 -45.0728489565 0 0 0
1235 1 11.5217669149 17.2777405675 -46.8764298466 0 0 0
1458 1 13.8455127528 18.6269890526 -45.1115571647 0 0 0
1239 1 13.8690089709 17.2699534362 -46.8872252214 0 0 0
1462 1 16.2397096323 18.6157778723 -45.1541268775 0 0 0
1243 1 16.2351404105 17.2636973263 -46.9022021498 0 0 0
1434 1 -0.4342457057 18.6733849266 -45.0650521856 0 0 0
1466 1 18.5772819712 18.6575075698 -45.1141512634 0 0 0
1247 1 18.5798433869 17.2629219478 -46.8962697548 0 0 0
1488 1 12.6570686296 20.6924876358 -45.085673946 0 0 0
1240 1 12.6762823908 19.3275872986 -46.8885349004 0 0 0
1271 1 11.4886683847 21.3796997833 -46.8828256474 0 0 0
1236 1 10.327755725 19.3323072576 -46.8705653651 0 0 0
1484 1 10.3114797429 20.6977240619 -45.0629597368 0 0 0
1492 1 15.0293863084 20.7015970866 -45.1324922435 0 0 0
1244 1 15.038869978 19.3256489489 -46.9185779964 0 0 0
1275 1 13.8347272785 21.3820694592 -46.9034886464 0 0 0
1279 1 16.2255232628 21.3900306825 -46.8998208888 0 0 0
1248 1 17.4201197692 19.3234566655 -46.9111179291 0 0 0
1496 1 17.417107426 20.7137601154 -45.0952051001 0 0 0
1252 1 19.7758676149 19.3446831001 -46.9003746206 0 0 0
1283 1 18.623748414 21.3958403977 -46.8801953194 0 0 0
1500 1 19.7716443152 20.7504541625 -45.0500020185 0 0 0
1276 1 12.6575063279 23.4307452221 -46.8705761897 0 0 0
1489 1 11.4700951028 22.7555389583 -45.0849467288 0 0 0
1272 1 10.30123277 23.4339278509 -46.8831041781 0 0 0
1493 1 13.8093096915 22.7847163092 -45.1095711931 0 0 0
1280 1 14.9555516454 23.489611107 -46.9533245421 0 0 0
3655 2 17.4204561565 22.0667143834 -46.4284538206 0 0 0
1497 1 16.212148772 22.8045957955 -45.1239127131 0 0 0
3653 2 18.0454514521 23.8197677037 -46.4968916384 0 0 0
3651 2 17.3947904292 23.6208980132 -47.1102275291 0 0 0
126 1 10.308587311 15.2068143998 -64.872073153 0 0 0
773 1 10.2978613825 15.2583546251 -54.1330481702 0 0 0
1251 1 20.9211972811 17.3002393955 -46.8947592643 0 0 0
1413 1 11.5320487401 13.1635156109 -43.2272290692 0 0 0
1416 1 13.8658855522 13.1675246579 -43.231416647 0 0 0
1420 1 16.213317965 13.1789489604 -43.2456535162 0 0 0
1424 1 18.6045086649 13.1691156205 -43.2806540288 0 0 0
1414 1 10.3580928383 15.2348844398 -43.1714950393 0 0 0
1417 1 12.6943884211 15.2005716211 -43.2459346314 0 0 0
1421 1 15.0415296144 15.1912265979 -43.2500512297 0 0 0
1425 1 17.3998582398 15.171762755 -43.2571265644 0 0 0
1429 1 19.7620697635 15.1418827051 -43.2532604102 0 0 0
1447 1 11.5042136638 17.2528700368 -43.2333015271 0 0 0
1451 1 13.8427964715 17.2198423344 -43.303090026 0 0 0
1455 1 16.2445625454 17.1951652722 -43.3166186489 0 0 0
1459 1 18.5877911735 17.1967037211 -43.2531710603 0 0 0
1482 1 11.4517440563 21.3731580413 -43.2479492151 0 0 0
1452 1 12.6364869115 19.2988520702 -43.2789382612 0 0 0
1448 1 10.3087320108 19.313709889 -43.2410735358 0 0 0
1456 1 15.0923797893 19.2462390461 -43.4251770514 0 0 0
3746 2 15.2156311306 20.0381362635 -42.1572769294 0 0 0
1486 1 13.8112159731 21.3778840125 -43.3464836933 0 0 0
1490 1 16.2632176875 21.4251003581 -43.4180702714 0 0 0
1460 1 17.4430496988 19.315661248 -43.3710505311 0 0 0
1464 1 19.7478047193 19.3822709649 -43.2852666585 0 0 0
1494 1 18.6247956899 21.443295946 -43.2557386073 0 0 0
1487 1 12.6173396099 23.4521360864 -43.3232506231 0 0 0
2662 1 18.6882389893 22.8168521904 -22.5799496446 0 0 0
3747 2 15.058708803 22.1193352209 -42.1308300412 0 0 0
1491 1 15.0184324196 23.5261717227 -43.3910451823 0 0 0
1495 1 17.4544857205 23.5046999073 -43.2790398583 0 0 0
1499 1 19.8228495813 23.4982481773 -43.2173076541 0 0 0
1625 1 12.6754309041 12.4948443704 -41.4131211747 0 0 0
1621 1 10.3225935124 12.4906895497 -41.4168734031 0 0 0
1619 1 11.4957751052 13.1839146145 -39.619724751 0 0 0
1629 1 15.0141135807 12.5005975359 -41.3902086562 0 0 0
1623 1 13.8517306477 13.1930797892 -39.6005789117 0 0 0
1633 1 17.3906791711 12.5250773726 -41.4541642835 0 0 0
1627 1 16.2264997781 13.1927827626 -39.5662567342 0 0 0
1637 1 19.8413621388 12.4867064878 -41.4880925878 0 0 0
1631 1 18.6166563629 13.1872920723 -39.5828077277 0 0 0
3707 2 18.6100513998 11.9097695479 -41.0259336465 0 0 0
1655 1 10.3357431521 16.5777859452 -41.4115182343 0 0 0
1626 1 11.5128118041 14.5312894913 -41.4224437635 0 0 0
1659 1 12.674165236 16.5365082453 -41.4262057139 0 0 0
1624 1 12.6644228078 15.1976178683 -39.5988388723 0 0 0
1620 1 10.3392968127 15.222151544 -39.6136539658 0 0 0
1630 1 13.8613406259 14.513748152 -41.4150891568 0 0 0
1663 1 15.043952332 16.4949429397 -41.4478320071 0 0 0
1628 1 15.0548129739 15.2006387628 -39.5837723478 0 0 0
1666 1 17.4098838183 16.4527556663 -41.3915215716 0 0 0
1634 1 16.2180032061 14.4996737062 -41.4208270736 0 0 0
1632 1 17.4435491523 15.1666300906 -39.5861237198 0 0 0
1638 1 18.611418569 14.4675017778 -41.4169103868 0 0 0
1670 1 19.8268400562 16.3603275979 -41.3439594287 0 0 0
1636 1 19.8332570511 15.14031798 -39.5493885608 0 0 0
1660 1 11.4764029892 18.6133650482 -41.4459807255 0 0 0
1653 1 11.480114637 17.2353580688 -39.6094582075 0 0 0
1658 1 12.563400364 19.224490961 -39.6056553551 0 0 0
1664 1 13.8120751078 18.4953774501 -41.5656709131 0 0 0
1657 1 13.81977675 17.176760278 -39.5834918 0 0 0
3750 2 15.0628504519 18.8633845959 -40.9409919503 0 0 0
1662 1 14.9829339801 18.9814363957 -39.4746570151 0 0 0
1667 1 16.3246154623 18.4643881017 -41.5261499712 0 0 0
3729 2 17.8227527301 18.8917533382 -41.5606440179 0 0 0
1661 1 16.2819128358 17.1545863089 -39.5345253964 0 0 0
3724 2 16.501252877 19.1250873643 -39.7559240356 0 0 0
3730 2 18.6383411453 17.1177165874 -41.7903833449 0 0 0
3728 2 19.9571201294 18.1886801749 -41.8246046058 0 0 0
3726 2 18.5465415427 19.1044161698 -41.5779894526 0 0 0
1665 1 18.6728333511 17.1583442913 -39.4824712673 0 0 0
3714 2 -1.416958183 18.2370624685 -41.0756460949 0 0 0
1691 1 12.5751526445 20.6657688103 -41.431682778 0 0 0
1686 1 11.3484205871 21.3313893403 -39.5564456581 0 0 0
1654 1 10.2885719889 19.2945435542 -39.6146907503 0 0 0
3749 2 14.3705173999 20.2795863602 -41.9010774305 0 0 0
3740 2 13.8565093042 19.8120507903 -40.2194098893 0 0 0
3744 2 15.3523191459 20.6012154585 -40.38822147 0 0 0
3745 2 15.3645704451 21.2688185193 -40.6926504461 0 0 0
3748 2 16.0699387188 20.3052998361 -41.9003594172 0 0 0
1697 1 17.4532613608 20.7505573503 -41.4701167653 0 0 0
3721 2 17.4853083012 19.2269467956 -39.9295247293 0 0 0
3743 2 16.866842804 20.7809089787 -39.6377267994 0 0 0
1701 1 19.7447846779 20.8741878427 -41.3189063195 0 0 0
3727 2 18.5821770633 20.4853934125 -40.5445537326 0 0 0
1692 1 11.4167883146 22.771604313 -41.4646710322 0 0 0
1690 1 12.5067949878 23.4562410781 -39.4707336989 0 0 0
1694 1 13.8274060031 22.8151819469 -41.5787652749 0 0 0
1693 1 15.0286869774 23.8573430014 -39.5728745596 0 0 0
3690 2 15.0653693919 -1.4230172313 -40.8414476397 0 0 0
3737 2 13.6250651048 22.5925706807 -39.7101863242 0 0 0
3738 2 14.1966363223 22.1572689101 -39.8367975696 0 0 0
1698 1 16.278150418 22.8166715127 -41.529846961 0 0 0
1696 1 17.4905305412 23.5167367669 -39.5889539803 0 0 0
3742 2 16.0640215393 22.2725320375 -39.5137694202 0 0 0
1702 1 18.6430555615 22.8330405756 -41.4008563931 0 0 0
1700 1 19.8273682098 23.4765837965 -39.5408380057 0 0 0
1812 1 10.3114881358 12.5224750388 -37.7864953302 0 0 0
1816 1 12.6477001308 12.5551566691 -37.8849812834 0 0 0
1819 1 15.0430878661 12.5243080993 -37.7464104793 0 0 0
1823 1 17.4221782165 12.5217563354 -37.726214203 0 0 0
1826 1 19.8341189189 12.496942018 -37.7578980438 0 0 0
1844 1 10.3794535978 16.6155983783 -37.7987939074 0 0 0
1817 1 11.4963366639 14.5631090046 -37.7921089677 0 0 0
1847 1 12.6461826138 16.5478291039 -37.7410054566 0 0 0
1820 1 13.8407498606 14.5310133922 -37.7769343663 0 0 0
1851 1 15.1149102018 16.5843796685 -37.7680467084 0 0 0
1824 1 16.2858731269 14.5453417437 -37.7747561602 0 0 0
1855 1 17.5189803924 16.4623781916 -37.6959901865 0 0 0
1827 1 18.6470328938 14.5058300999 -37.7921431982 0 0 0
1859 1 19.862842173 16.5691868732 -37.6381516096 0 0 0
1848 1 11.4843883591 18.6213580479 -37.7648886538 0 0 0
1852 1 13.8375577888 18.557164058 -37.746544268 0 0 0
1856 1 16.312686092 18.6613609085 -37.7400007582 0 0 0
3725 2 17.4727728315 17.8010697994 -39.0250859157 0 0 0
1860 1 18.6624606147 18.5974027042 -37.4816561354 0 0 0
1882 1 12.5067795417 20.5289465777 -37.4795919995 0 0 0
1886 1 14.9901997338 20.5818316564 -37.6333872364 0 0 0
3739 2 13.1699048267 20.972023509 -39.1886878035 0 0 0
3736 2 13.956619356 20.5373362721 -39.3816796267 0 0 0
1889 1 17.466365133 20.6716336465 -37.4817027024 0 0 0
3722 2 16.4078702272 20.6714489322 -39.0575874386 0 0 0
3723 2 18.0242743574 19.6181360416 -39.1935452576 0 0 0
1893 1 19.8418583535 20.6992845499 -37.5865975255 0 0 0
1669 1 19.883328755 19.3130431571 -39.3810057299 0 0 0
1695 1 18.6394000248 21.4139158831 -39.3906835949 0 0 0
1883 1 11.348598022 22.7150498759 -37.6803963074 0 0 0
1887 1 13.7755056776 22.6793576033 -37.7604456378 0 0 0
3741 2 15.5965560907 22.1534889204 -38.8769584377 0 0 0
1890 1 16.1861013714 22.7263394966 -37.6735013459 0 0 0
1894 1 18.6866299683 22.7447946407 -37.6802247131 0 0 0
3817 2 12.6498642592 12.7436176334 -35.2798004296 0 0 0
1810 1 11.461059449 13.2106790577 -35.9509879995 0 0 0
1814 1 13.8386976213 13.3071508054 -35.8616963952 0 0 0
3840 2 15.076478403 13.9212560063 -36.4601871833 0 0 0
1818 1 16.2925370341 13.1944747944 -35.859521264 0 0 0
3845 2 19.8036532933 13.4113574579 -35.0038938407 0 0 0
1821 1 18.6099182542 13.1764716336 -35.8255536864 0 0 0
1811 1 10.477462284 15.3265182007 -35.8732951665 0 0 0
1815 1 12.5712130991 15.1909741777 -35.9088457209 0 0 0
3860 2 14.3856110414 15.6104353323 -35.5535104285 0 0 0
3839 2 14.3769355323 15.6212819823 -36.3062097728 0 0 0
3836 2 15.7398346194 14.6672639193 -35.9601132627 0 0 0
1822 1 17.5192232511 15.2806866383 -35.7508448115 0 0 0
3838 2 16.0812042569 15.5490490491 -35.4903316848 0 0 0
3842 2 19.8925422154 16.5124762449 -35.7395233491 0 0 0
3841 2 19.8506533849 14.8717061579 -36.1511809645 0 0 0
3843 2 20.7423454728 15.0344286685 -36.0143555789 0 0 0
3844 2 18.9696865638 15.0304004526 -35.9978239355 0 0 0
1842 1 11.4573562805 17.2702209518 -35.8770190782 0 0 0
3859 2 13.299373008 16.9158078928 -35.6193666291 0 0 0
3858 2 15.1018386823 17.4774728797 -35.3123193781 0 0 0
3857 2 13.8592191639 18.5019136067 -35.8549030251 0 0 0
3856 2 13.2962925776 17.6083189564 -36.2056030371 0 0 0
3837 2 14.935610792 17.1928673163 -35.9791864458 0 0 0
1849 1 16.7988572727 17.4686112706 -36.1637382754 0 0 0
1853 1 18.7146078174 17.2972391197 -35.6793241753 0 0 0
1846 1 12.6245884145 19.3184753053 -35.7431471665 0 0 0
1877 1 11.3934129818 21.4023217052 -35.7899794403 0 0 0
1843 1 10.5646684031 19.3538324267 -35.9203580787 0 0 0
1881 1 13.8216591967 21.3108844686 -35.7817046367 0 0 0
1850 1 15.127724947 19.3009913971 -35.8394375038 0 0 0
1854 1 17.4781820061 19.35360058 -35.7132556649 0 0 0
1884 1 16.1722274219 21.2925322169 -35.6553794819 0 0 0
1858 1 19.8507583759 19.333572218 -35.7337190293 0 0 0
1888 1 18.6837618904 21.3377612604 -35.6701335203 0 0 0
3861 2 12.6351750261 23.2455788137 -35.1606572864 0 0 0
3864 2 11.8564752476 23.3199946521 -35.6095012597 0 0 0
3865 2 12.649563708 21.9807864192 -36.289160823 0 0 0
1885 1 15.0120734892 23.3054024929 -35.7818272669 0 0 0